# vtk DataFile Version 2.0
Solution time step = 2 
ASCII

DATASET UNSTRUCTURED_GRID
POINTS 2113 double
0.000000 0.000000 0.000000
1.000000 0.000000 0.000000
1.000000 1.000000 0.000000
0.000000 1.000000 0.000000
0.031250 0.000000 0.000000
0.062500 0.000000 0.000000
0.093750 0.000000 0.000000
0.125000 0.000000 0.000000
0.156250 0.000000 0.000000
0.187500 0.000000 0.000000
0.218750 0.000000 0.000000
0.250000 0.000000 0.000000
0.281250 0.000000 0.000000
0.312500 0.000000 0.000000
0.343750 0.000000 0.000000
0.375000 0.000000 0.000000
0.406250 0.000000 0.000000
0.437500 0.000000 0.000000
0.468750 0.000000 0.000000
0.500000 0.000000 0.000000
0.531250 0.000000 0.000000
0.562500 0.000000 0.000000
0.593750 0.000000 0.000000
0.625000 0.000000 0.000000
0.656250 0.000000 0.000000
0.687500 0.000000 0.000000
0.718750 0.000000 0.000000
0.750000 0.000000 0.000000
0.781250 0.000000 0.000000
0.812500 0.000000 0.000000
0.843750 0.000000 0.000000
0.875000 0.000000 0.000000
0.906250 0.000000 0.000000
0.937500 0.000000 0.000000
0.968750 0.000000 0.000000
1.000000 0.031250 0.000000
1.000000 0.062500 0.000000
1.000000 0.093750 0.000000
1.000000 0.125000 0.000000
1.000000 0.156250 0.000000
1.000000 0.187500 0.000000
1.000000 0.218750 0.000000
1.000000 0.250000 0.000000
1.000000 0.281250 0.000000
1.000000 0.312500 0.000000
1.000000 0.343750 0.000000
1.000000 0.375000 0.000000
1.000000 0.406250 0.000000
1.000000 0.437500 0.000000
1.000000 0.468750 0.000000
1.000000 0.500000 0.000000
1.000000 0.531250 0.000000
1.000000 0.562500 0.000000
1.000000 0.593750 0.000000
1.000000 0.625000 0.000000
1.000000 0.656250 0.000000
1.000000 0.687500 0.000000
1.000000 0.718750 0.000000
1.000000 0.750000 0.000000
1.000000 0.781250 0.000000
1.000000 0.812500 0.000000
1.000000 0.843750 0.000000
1.000000 0.875000 0.000000
1.000000 0.906250 0.000000
1.000000 0.937500 0.000000
1.000000 0.968750 0.000000
0.968750 1.000000 0.000000
0.937500 1.000000 0.000000
0.906250 1.000000 0.000000
0.875000 1.000000 0.000000
0.843750 1.000000 0.000000
0.812500 1.000000 0.000000
0.781250 1.000000 0.000000
0.750000 1.000000 0.000000
0.718750 1.000000 0.000000
0.687500 1.000000 0.000000
0.656250 1.000000 0.000000
0.625000 1.000000 0.000000
0.593750 1.000000 0.000000
0.562500 1.000000 0.000000
0.531250 1.000000 0.000000
0.500000 1.000000 0.000000
0.468750 1.000000 0.000000
0.437500 1.000000 0.000000
0.406250 1.000000 0.000000
0.375000 1.000000 0.000000
0.343750 1.000000 0.000000
0.312500 1.000000 0.000000
0.281250 1.000000 0.000000
0.250000 1.000000 0.000000
0.218750 1.000000 0.000000
0.187500 1.000000 0.000000
0.156250 1.000000 0.000000
0.125000 1.000000 0.000000
0.093750 1.000000 0.000000
0.062500 1.000000 0.000000
0.031250 1.000000 0.000000
0.000000 0.968750 0.000000
0.000000 0.937500 0.000000
0.000000 0.906250 0.000000
0.000000 0.875000 0.000000
0.000000 0.843750 0.000000
0.000000 0.812500 0.000000
0.000000 0.781250 0.000000
0.000000 0.750000 0.000000
0.000000 0.718750 0.000000
0.000000 0.687500 0.000000
0.000000 0.656250 0.000000
0.000000 0.625000 0.000000
0.000000 0.593750 0.000000
0.000000 0.562500 0.000000
0.000000 0.531250 0.000000
0.000000 0.500000 0.000000
0.000000 0.468750 0.000000
0.000000 0.437500 0.000000
0.000000 0.406250 0.000000
0.000000 0.375000 0.000000
0.000000 0.343750 0.000000
0.000000 0.312500 0.000000
0.000000 0.281250 0.000000
0.000000 0.250000 0.000000
0.000000 0.218750 0.000000
0.000000 0.187500 0.000000
0.000000 0.156250 0.000000
0.000000 0.125000 0.000000
0.000000 0.093750 0.000000
0.000000 0.062500 0.000000
0.000000 0.031250 0.000000
0.500000 0.500000 0.000000
0.750000 0.250000 0.000000
0.250000 0.250000 0.000000
0.250000 0.750000 0.000000
0.750000 0.750000 0.000000
0.375000 0.125000 0.000000
0.125000 0.125000 0.000000
0.625000 0.125000 0.000000
0.500000 0.250000 0.000000
0.875000 0.125000 0.000000
0.625000 0.375000 0.000000
0.375000 0.375000 0.000000
0.125000 0.375000 0.000000
0.250000 0.500000 0.000000
0.125000 0.625000 0.000000
0.375000 0.625000 0.000000
0.125000 0.875000 0.000000
0.875000 0.375000 0.000000
0.875000 0.625000 0.000000
0.750000 0.500000 0.000000
0.875000 0.875000 0.000000
0.625000 0.625000 0.000000
0.625000 0.875000 0.000000
0.375000 0.875000 0.000000
0.500000 0.750000 0.000000
0.187500 0.062500 0.000000
0.062500 0.062500 0.000000
0.312500 0.062500 0.000000
0.250000 0.125000 0.000000
0.437500 0.062500 0.000000
0.312500 0.187500 0.000000
0.187500 0.187500 0.000000
0.562500 0.062500 0.000000
0.500000 0.125000 0.000000
0.562500 0.187500 0.000000
0.437500 0.187500 0.000000
0.687500 0.187500 0.000000
0.625000 0.250000 0.000000
0.375000 0.250000 0.000000
0.687500 0.062500 0.000000
0.812500 0.062500 0.000000
0.750000 0.125000 0.000000
0.937500 0.062500 0.000000
0.812500 0.187500 0.000000
0.437500 0.312500 0.000000
0.312500 0.312500 0.000000
0.562500 0.312500 0.000000
0.500000 0.375000 0.000000
0.687500 0.312500 0.000000
0.562500 0.437500 0.000000
0.437500 0.437500 0.000000
0.062500 0.187500 0.000000
0.125000 0.250000 0.000000
0.062500 0.312500 0.000000
0.187500 0.312500 0.000000
0.062500 0.437500 0.000000
0.250000 0.375000 0.000000
0.187500 0.437500 0.000000
0.187500 0.562500 0.000000
0.125000 0.500000 0.000000
0.250000 0.625000 0.000000
0.187500 0.687500 0.000000
0.062500 0.562500 0.000000
0.312500 0.437500 0.000000
0.375000 0.500000 0.000000
0.312500 0.562500 0.000000
0.437500 0.562500 0.000000
0.312500 0.687500 0.000000
0.062500 0.687500 0.000000
0.125000 0.750000 0.000000
0.062500 0.812500 0.000000
0.187500 0.812500 0.000000
0.062500 0.937500 0.000000
0.937500 0.187500 0.000000
0.937500 0.312500 0.000000
0.875000 0.250000 0.000000
0.937500 0.437500 0.000000
0.812500 0.312500 0.000000
0.937500 0.562500 0.000000
0.875000 0.500000 0.000000
0.812500 0.562500 0.000000
0.812500 0.437500 0.000000
0.812500 0.687500 0.000000
0.750000 0.625000 0.000000
0.750000 0.375000 0.000000
0.937500 0.687500 0.000000
0.937500 0.812500 0.000000
0.875000 0.750000 0.000000
0.937500 0.937500 0.000000
0.812500 0.812500 0.000000
0.687500 0.437500 0.000000
0.687500 0.562500 0.000000
0.625000 0.500000 0.000000
0.687500 0.687500 0.000000
0.562500 0.562500 0.000000
0.812500 0.937500 0.000000
0.687500 0.937500 0.000000
0.750000 0.875000 0.000000
0.562500 0.937500 0.000000
0.687500 0.812500 0.000000
0.437500 0.937500 0.000000
0.500000 0.875000 0.000000
0.437500 0.812500 0.000000
0.562500 0.812500 0.000000
0.312500 0.812500 0.000000
0.375000 0.750000 0.000000
0.625000 0.750000 0.000000
0.312500 0.937500 0.000000
0.187500 0.937500 0.000000
0.250000 0.875000 0.000000
0.562500 0.687500 0.000000
0.437500 0.687500 0.000000
0.500000 0.625000 0.000000
0.093750 0.031250 0.000000
0.031250 0.031250 0.000000
0.156250 0.031250 0.000000
0.125000 0.062500 0.000000
0.218750 0.031250 0.000000
0.156250 0.093750 0.000000
0.093750 0.093750 0.000000
0.281250 0.031250 0.000000
0.250000 0.062500 0.000000
0.281250 0.093750 0.000000
0.218750 0.093750 0.000000
0.343750 0.093750 0.000000
0.312500 0.125000 0.000000
0.187500 0.125000 0.000000
0.343750 0.031250 0.000000
0.406250 0.031250 0.000000
0.375000 0.062500 0.000000
0.468750 0.031250 0.000000
0.406250 0.093750 0.000000
0.218750 0.156250 0.000000
0.156250 0.156250 0.000000
0.281250 0.156250 0.000000
0.250000 0.187500 0.000000
0.343750 0.156250 0.000000
0.281250 0.218750 0.000000
0.218750 0.218750 0.000000
0.531250 0.031250 0.000000
0.500000 0.062500 0.000000
0.531250 0.093750 0.000000
0.468750 0.093750 0.000000
0.593750 0.093750 0.000000
0.562500 0.125000 0.000000
0.437500 0.125000 0.000000
0.593750 0.156250 0.000000
0.531250 0.156250 0.000000
0.500000 0.187500 0.000000
0.468750 0.156250 0.000000
0.531250 0.218750 0.000000
0.468750 0.218750 0.000000
0.406250 0.156250 0.000000
0.656250 0.156250 0.000000
0.625000 0.187500 0.000000
0.656250 0.218750 0.000000
0.593750 0.218750 0.000000
0.718750 0.218750 0.000000
0.687500 0.250000 0.000000
0.562500 0.250000 0.000000
0.375000 0.187500 0.000000
0.406250 0.218750 0.000000
0.343750 0.218750 0.000000
0.437500 0.250000 0.000000
0.312500 0.250000 0.000000
0.593750 0.031250 0.000000
0.656250 0.031250 0.000000
0.625000 0.062500 0.000000
0.718750 0.031250 0.000000
0.656250 0.093750 0.000000
0.781250 0.031250 0.000000
0.750000 0.062500 0.000000
0.781250 0.093750 0.000000
0.718750 0.093750 0.000000
0.843750 0.093750 0.000000
0.812500 0.125000 0.000000
0.687500 0.125000 0.000000
0.843750 0.031250 0.000000
0.906250 0.031250 0.000000
0.875000 0.062500 0.000000
0.968750 0.031250 0.000000
0.906250 0.093750 0.000000
0.718750 0.156250 0.000000
0.781250 0.156250 0.000000
0.750000 0.187500 0.000000
0.843750 0.156250 0.000000
0.781250 0.218750 0.000000
0.343750 0.281250 0.000000
0.281250 0.281250 0.000000
0.406250 0.281250 0.000000
0.375000 0.312500 0.000000
0.468750 0.281250 0.000000
0.406250 0.343750 0.000000
0.343750 0.343750 0.000000
0.531250 0.281250 0.000000
0.500000 0.312500 0.000000
0.531250 0.343750 0.000000
0.468750 0.343750 0.000000
0.593750 0.343750 0.000000
0.562500 0.375000 0.000000
0.437500 0.375000 0.000000
0.593750 0.281250 0.000000
0.656250 0.281250 0.000000
0.625000 0.312500 0.000000
0.718750 0.281250 0.000000
0.656250 0.343750 0.000000
0.468750 0.406250 0.000000
0.406250 0.406250 0.000000
0.531250 0.406250 0.000000
0.500000 0.437500 0.000000
0.593750 0.406250 0.000000
0.531250 0.468750 0.000000
0.468750 0.468750 0.000000
0.031250 0.093750 0.000000
0.062500 0.125000 0.000000
0.031250 0.156250 0.000000
0.093750 0.156250 0.000000
0.031250 0.218750 0.000000
0.125000 0.187500 0.000000
0.093750 0.218750 0.000000
0.093750 0.281250 0.000000
0.062500 0.250000 0.000000
0.125000 0.312500 0.000000
0.093750 0.343750 0.000000
0.031250 0.281250 0.000000
0.156250 0.218750 0.000000
0.187500 0.250000 0.000000
0.156250 0.281250 0.000000
0.218750 0.281250 0.000000
0.156250 0.343750 0.000000
0.031250 0.343750 0.000000
0.062500 0.375000 0.000000
0.031250 0.406250 0.000000
0.093750 0.406250 0.000000
0.031250 0.468750 0.000000
0.250000 0.312500 0.000000
0.218750 0.343750 0.000000
0.218750 0.406250 0.000000
[...]
POINT_DATA 2113
SCALARS damage double
LOOKUP_TABLE default
0.050000
0.050000
0.050000
0.050000
0.037037
0.090909
0.216216
0.405405
0.918919
0.891892
0.864865
0.837838
0.837838
0.837838
0.837838
0.837838
0.837838
0.837838
0.837838
0.837838
0.837838
0.837838
0.837838
0.837838
0.837838
0.837838
0.837838
0.837838
0.864865
0.891892
0.918919
0.378378
0.216216
0.090909
0.037037
0.037037
0.030303
0.027027
0.027027
0.027027
0.027027
0.027027
0.027027
0.027027
0.027027
0.027027
0.027027
0.027027
0.027027
0.027027
0.027027
0.027027
0.027027
0.027027
0.027027
0.027027
0.027027
0.027027
0.027027
0.027027
0.027027
0.027027
0.027027
0.027027
0.030303
0.037037
0.037037
0.090909
0.216216
0.405405
0.621622
0.594595
0.567568
0.567568
0.567568
0.567568
0.567568
0.567568
0.567568
0.567568
0.567568
0.567568
0.567568
0.567568
0.567568
0.567568
0.567568
0.567568
0.567568
0.567568
0.675676
0.837838
0.945946
0.378378
0.216216
0.090909
0.037037
0.037037
0.030303
0.027027
0.027027
0.027027
0.027027
0.027027
0.027027
0.027027
0.027027
0.027027
0.027027
0.027027
0.027027
0.027027
0.027027
0.027027
0.027027
0.027027
0.027027
0.027027
0.027027
0.027027
0.027027
0.027027
0.027027
0.027027
0.027027
0.027027
0.030303
0.037037
0.779412
0.014706
0.014706
0.014706
0.014706
0.264706
0.367647
0.264706
0.014706
0.367647
0.250000
0.088235
0.382353
0.014706
0.367647
0.147059
0.382353
0.382353
0.382353
0.014706
0.382353
0.294118
0.014706
0.014706
0.205882
0.918033
0.074074
0.868852
0.264706
0.868852
0.014706
0.279412
0.868852
0.264706
0.014706
0.014706
0.014706
0.014706
0.014706
0.868852
0.918033
0.279412
0.074074
0.279412
0.029412
0.014706
0.367647
0.941176
0.014706
0.750000
0.514706
0.065574
0.367647
0.065574
0.279412
0.065574
0.014706
0.264706
0.279412
0.382353
0.014706
0.279412
0.065574
0.014706
0.132353
0.014706
0.558824
0.014706
0.065574
0.367647
0.065574
0.279412
0.074074
0.065574
0.065574
0.367647
0.065574
0.279412
0.065574
0.382353
0.264706
0.264706
0.279412
0.014706
0.014706
0.065574
0.065574
0.367647
0.074074
0.279412
0.058824
0.058824
0.294118
0.029412
0.838235
0.557377
0.377049
0.014706
0.377049
0.014706
0.377049
0.014706
0.014706
0.029412
0.014706
0.044118
0.088235
0.377049
0.540984
0.014706
0.764706
0.617647
0.852941
0.220000
0.027778
0.920000
0.393443
0.880000
0.691176
0.191176
0.840000
0.868852
0.441176
0.500000
0.441176
0.279412
0.470588
0.840000
0.840000
0.868852
0.840000
0.441176
0.220588
0.514706
0.117647
0.014706
0.117647
0.014706
0.117647
0.840000
0.868852
0.441176
0.441176
0.441176
0.279412
0.279412
0.117647
0.117647
0.014706
0.117647
0.014706
0.014706
0.117647
0.117647
0.014706
0.014706
0.014706
0.014706
0.014706
0.014706
0.014706
0.014706
0.014706
0.014706
0.014706
0.840000
0.840000
0.868852
0.840000
0.441176
0.880000
0.868852
0.514706
0.441176
0.705882
0.470588
0.279412
0.920000
0.220000
0.377049
0.027778
0.191176
0.117647
0.220588
0.014706
0.514706
0.117647
0.014706
0.014706
0.014706
0.014706
0.014706
0.073529
0.014706
0.220588
0.235294
0.514706
0.426471
0.514706
0.647059
0.426471
0.102941
0.014706
0.147059
0.014706
0.132353
0.647059
0.308824
0.808824
0.808824
0.691176
0.852941
0.676471
0.020000
0.065574
0.020000
0.191176
0.020000
0.382353
0.191176
0.191176
0.065574
0.382353
0.191176
0.020000
0.470588
0.279412
0.470588
0.117647
0.455882
0.020000
0.065574
0.020000
0.191176
0.020000
0.014706
0.117647
0.102941
0.264706
0.014706
0.117647
0.455882
0.117647
0.279412
0.470588
0.455882
0.455882
0.382353
0.382353
0.014706
0.117647
0.117647
0.264706
0.014706
0.117647
0.455882
0.191176
0.191176
0.065574
0.191176
0.020000
0.014706
0.014706
0.014706
0.044118
0.014706
0.147059
0.044118
0.044118
0.014706
0.147059
0.044118
0.014706
0.308824
0.529412
0.308824
0.676471
0.294118
0.014706
0.014706
0.014706
0.044118
0.014706
0.020000
0.065574
0.020000
0.191176
0.020000
0.382353
0.191176
0.191176
0.065574
0.382353
0.191176
0.020000
0.470588
0.279412
0.470588
0.117647
0.455882
0.020000
0.065574
0.020000
0.191176
0.027778
0.020000
0.020000
0.065574
0.020000
0.191176
0.020000
0.065574
0.191176
0.191176
0.191176
0.382353
0.382353
0.020000
0.020000
0.065574
0.020000
0.191176
0.470588
0.470588
0.279412
0.455882
0.117647
0.020000
0.065574
0.191176
0.191176
0.191176
0.382353
0.382353
0.455882
0.455882
0.279412
0.455882
0.117647
0.117647
0.455882
0.455882
0.264706
0.117647
0.102941
0.117647
0.014706
0.014706
0.264706
0.102941
0.117647
0.014706
0.014706
0.020000
0.020000
0.065574
0.020000
0.191176
0.020000
0.065574
0.191176
0.191176
0.191176
0.382353
0.382353
0.020000
0.020000
0.065574
0.027778
0.191176
0.470588
0.470588
0.279412
0.455882
0.117647
0.014706
0.014706
0.058824
0.014706
0.176471
0.014706
0.058824
0.176471
0.176471
0.176471
0.294118
0.308824
0.014706
0.014706
0.044118
0.014706
0.132353
0.705882
0.720588
0.794118
0.750000
0.867647
0.220000
0.620000
0.393443
0.480000
0.676471
0.440000
0.377049
0.250000
0.352941
0.250000
0.014706
0.264706
0.440000
0.440000
0.377049
0.440000
0.250000
0.117647
0.014706
0.014706
0.014706
0.014706
0.440000
0.377049
0.250000
0.250000
0.250000
0.014706
0.014706
0.014706
0.014706
0.029412
0.014706
0.073529
0.088235
0.014706
0.014706
0.014706
0.014706
0.029412
0.014706
0.014706
0.117647
0.014706
0.058824
0.014706
0.176471
0.014706
0.440000
0.440000
0.377049
0.440000
0.250000
0.520000
0.377049
0.308824
0.250000
0.500000
0.264706
0.014706
0.780000
0.220000
0.377049
0.014706
0.117647
0.014706
0.058824
0.235294
0.220588
0.691176
0.735294
0.279412
0.441176
0.750000
0.867647
0.220588
0.735294
0.882353
0.147059
0.014706
0.102941
0.941176
0.735294
0.808824
0.028571
0.037037
0.146341
0.090909
0.302326
0.150943
0.022222
0.488372
0.400000
0.482143
0.303571
0.928571
0.934426
0.213115
0.906977
0.883721
0.900000
0.837209
0.910714
0.292308
0.129032
0.476923
0.382353
0.938462
0.470588
0.279412
0.813953
0.840000
0.857143
0.875000
0.857143
0.868852
0.901639
0.861538
0.861538
0.441176
0.892308
0.352941
0.382353
0.923077
0.861538
0.441176
0.367647
0.367647
0.367647
0.279412
0.279412
0.588235
0.470588
0.588235
0.352941
0.602941
0.813953
0.813953
0.840000
0.813953
0.857143
0.813953
0.840000
0.857143
0.857143
0.857143
0.868852
0.868852
0.813953
0.813953
0.840000
0.813953
0.857143
0.861538
0.861538
0.441176
0.861538
0.367647
0.485294
0.470588
0.338235
0.352941
0.220588
0.235294
0.397059
0.176471
0.117647
0.058824
0.102941
0.058824
0.014706
0.117647
0.191176
0.191176
0.117647
0.191176
0.058824
0.058824
0.191176
0.014706
0.014706
0.014706
0.014706
0.058824
0.813953
0.840000
0.857143
0.857143
0.857143
0.868852
0.868852
0.861538
0.861538
0.441176
0.861538
0.352941
0.352941
0.861538
0.861538
0.441176
0.367647
0.367647
0.367647
0.279412
0.279412
0.441176
0.367647
0.367647
0.279412
0.279412
0.191176
0.191176
0.117647
0.191176
0.058824
0.058824
0.176471
0.014706
0.058824
0.058824
0.117647
0.014706
0.058824
0.176471
0.014706
0.014706
0.014706
0.014706
0.014706
0.014706
0.014706
0.191176
0.117647
0.191176
0.058824
0.191176
0.191176
0.117647
0.058824
0.058824
0.058824
0.014706
0.014706
0.014706
0.014706
0.014706
0.014706
0.014706
0.014706
0.014706
0.014706
0.014706
0.014706
0.014706
0.014706
0.014706
0.014706
0.014706
0.014706
0.014706
0.014706
0.014706
0.117647
0.058824
0.058824
0.014706
0.014706
0.014706
0.014706
0.014706
0.014706
0.014706
0.014706
0.014706
0.014706
0.014706
0.014706
0.014706
0.014706
0.014706
0.014706
0.014706
0.014706
0.014706
0.813953
0.813953
0.840000
0.813953
0.857143
0.813953
0.840000
0.857143
0.857143
0.857143
0.868852
0.868852
0.813953
0.813953
0.840000
0.813953
0.857143
0.861538
0.861538
0.441176
0.861538
0.367647
0.837209
0.840000
0.875000
0.857143
0.910714
0.901639
0.868852
0.907692
0.876923
0.441176
0.861538
0.397059
0.367647
0.861538
0.923077
0.602941
0.602941
0.485294
0.470588
0.602941
0.352941
0.441176
0.367647
0.367647
0.279412
0.279412
0.883721
0.906977
0.900000
0.465116
0.928571
0.279070
0.380000
0.285714
0.464286
0.150943
0.196721
0.934426
0.146341
0.028571
0.090909
0.037037
0.022222
0.461538
0.276923
0.367647
0.129032
0.279412
0.191176
0.191176
0.117647
0.191176
0.058824
0.235294
0.117647
0.102941
0.058824
0.235294
0.117647
0.014706
0.338235
0.485294
0.352941
0.470588
0.397059
0.014706
0.058824
0.014706
0.191176
0.058824
0.014706
0.014706
0.014706
0.014706
0.014706
0.014706
0.014706
0.014706
0.014706
0.014706
0.014706
0.014706
0.014706
0.014706
0.014706
0.014706
0.014706
0.014706
0.029412
0.014706
0.014706
0.014706
0.014706
0.191176
0.088235
0.014706
0.014706
0.029412
0.205882
0.029412
0.294118
0.352941
0.102941
0.485294
0.352941
0.455882
0.264706
0.794118
0.720588
0.250000
0.470588
0.514706
0.588235
0.573529
0.308824
0.617647
0.750000
0.279412
0.426471
0.352941
0.632353
0.235294
0.014706
0.029412
0.058824
0.029412
0.161765
0.014706
0.073529
0.088235
0.147059
0.029412
0.073529
0.191176
0.014706
0.014706
0.014706
0.014706
0.014706
0.235294
0.147059
0.220588
0.058824
0.191176
0.411765
0.205882
0.529412
0.455882
0.823529
0.558824
0.485294
0.911765
0.911765
0.882353
0.779412
0.764706
0.808824
0.647059
0.691176
0.647059
0.705882
0.367647
0.735294
0.764706
0.602941
0.867647
0.794118
0.794118
0.882353
0.764706
0.028571
0.022727
0.024390
0.018868
0.023256
0.065574
0.017857
0.017857
0.020000
0.065574
0.017857
0.023256
0.123077
0.191176
0.123077
0.279412
0.123077
0.023256
0.020000
0.023256
0.017857
0.023256
0.382353
0.279412
0.279412
0.191176
0.382353
0.264706
0.123077
0.279412
0.191176
0.123077
0.123077
0.123077
0.065574
0.065574
0.382353
0.279412
0.279412
0.191176
0.382353
0.279412
0.123077
0.017857
0.017857
0.020000
0.017857
0.023256
0.470588
0.455882
0.470588
0.382353
0.455882
0.279412
0.382353
0.382353
0.470588
0.279412
0.382353
0.455882
0.191176
0.117647
0.191176
0.058824
0.191176
0.470588
0.455882
0.470588
0.367647
0.470588
0.023256
0.020000
0.023256
0.017857
0.023256
0.065574
0.017857
0.017857
0.020000
0.065574
0.017857
0.023256
0.123077
0.191176
0.123077
0.279412
0.123077
0.023256
0.020000
0.023256
0.017857
0.023256
0.014706
0.058824
0.058824
0.117647
0.014706
0.058824
0.191176
0.058824
0.102941
0.176471
0.176471
0.176471
0.264706
0.264706
0.014706
0.058824
0.058824
0.117647
0.014706
0.058824
0.191176
0.367647
0.367647
0.455882
0.367647
0.470588
0.058824
0.117647
0.191176
0.191176
0.191176
0.279412
0.279412
0.382353
0.382353
0.470588
0.382353
0.455882
0.470588
0.367647
0.367647
0.455882
0.470588
0.470588
0.470588
0.382353
0.382353
0.455882
0.470588
0.470588
0.382353
0.382353
0.014706
0.058824
0.058824
0.117647
0.014706
0.058824
0.191176
0.058824
0.102941
0.176471
0.176471
0.191176
0.264706
0.264706
0.014706
0.058824
0.058824
0.117647
0.014706
0.058824
0.191176
0.367647
0.367647
0.455882
0.367647
0.470588
0.279412
0.279412
0.191176
0.279412
0.123077
0.279412
0.191176
0.123077
0.123077
0.123077
0.065574
0.065574
0.279412
0.279412
0.191176
0.279412
0.123077
0.017857
0.017857
0.020000
0.017857
0.023256
0.014706
0.014706
0.014706
0.014706
0.014706
0.014706
0.014706
0.014706
0.014706
0.014706
0.014706
0.014706
0.014706
0.014706
0.014706
0.073529
0.014706
0.014706
0.014706
0.014706
0.014706
0.014706
0.147059
0.073529
0.073529
0.044118
0.147059
0.058824
0.014706
0.073529
0.044118
0.014706
0.014706
0.014706
0.014706
0.014706
0.147059
0.073529
0.073529
0.044118
0.147059
0.073529
0.014706
0.014706
0.014706
0.014706
0.014706
0.014706
0.235294
0.323529
0.235294
0.500000
0.220588
0.529412
0.500000
0.500000
0.308824
0.544118
0.514706
0.220588
0.588235
0.661765
0.602941
0.764706
0.617647
0.235294
0.308824
0.235294
0.529412
0.205882
0.014706
0.014706
0.014706
0.014706
0.014706
0.014706
0.014706
0.014706
0.014706
0.014706
0.014706
0.014706
0.014706
0.044118
0.014706
0.073529
0.014706
0.014706
0.014706
0.014706
0.014706
0.014706
0.023256
0.020000
0.023256
0.017857
0.023256
0.065574
0.017857
0.017857
0.020000
0.065574
0.017857
0.023256
0.123077
0.191176
0.123077
0.279412
0.123077
0.023256
0.020000
0.023256
0.017857
0.023256
0.382353
0.279412
0.279412
0.191176
0.382353
0.264706
0.123077
0.279412
0.191176
0.123077
0.123077
0.123077
0.065574
0.065574
0.382353
0.279412
0.279412
0.191176
0.382353
0.279412
0.123077
0.017857
0.017857
0.020000
0.017857
0.023256
0.470588
0.455882
0.470588
0.382353
0.455882
0.279412
0.382353
0.382353
0.470588
0.279412
0.382353
0.455882
0.191176
0.117647
0.191176
0.058824
0.191176
0.470588
0.455882
0.470588
0.367647
0.470588
0.023256
0.020000
0.023256
0.017857
0.023256
0.065574
0.017857
0.017857
0.020000
0.065574
0.018868
0.023256
0.123077
0.191176
0.123077
0.279412
0.129032
0.024390
0.022727
0.028571
0.022222
0.037037
0.028571
0.024390
0.022727
0.023256
0.018868
0.023256
0.020000
0.017857
0.017857
0.017857
0.065574
0.065574
0.023256
0.023256
0.020000
0.023256
0.017857
0.123077
0.123077
0.191176
0.123077
0.279412
0.023256
0.020000
0.017857
0.017857
0.017857
0.065574
0.065574
0.123077
0.123077
0.191176
0.123077
0.279412
0.264706
0.123077
0.123077
0.191176
0.279412
0.279412
0.279412
0.382353
0.382353
0.191176
0.279412
0.279412
0.382353
0.382353
0.023256
0.023256
0.020000
0.023256
0.017857
0.023256
0.020000
0.017857
0.017857
0.017857
0.065574
0.065574
0.023256
0.023256
0.020000
0.023256
0.017857
0.123077
0.123077
0.191176
0.123077
0.279412
0.470588
0.470588
0.455882
0.455882
0.382353
0.455882
0.470588
0.382353
0.382353
0.382353
0.279412
0.279412
0.470588
0.470588
0.455882
0.470588
0.367647
0.191176
0.191176
0.117647
0.191176
0.058824
0.023256
0.020000
0.017857
0.017857
0.017857
0.065574
0.065574
0.123077
0.123077
0.191176
0.123077
0.279412
0.279412
0.123077
0.123077
0.191176
0.279412
0.279412
0.279412
0.382353
0.382353
0.191176
0.279412
0.279412
0.382353
0.382353
0.470588
0.470588
0.455882
0.470588
0.367647
0.367647
0.470588
0.279412
0.382353
0.382353
0.470588
0.279412
0.367647
0.470588
0.191176
0.191176
0.117647
0.191176
0.058824
0.058824
0.191176
0.470588
0.455882
0.470588
0.367647
0.470588
0.470588
0.455882
0.367647
0.367647
0.367647
0.264706
0.264706
0.191176
0.176471
0.102941
0.176471
0.058824
0.058824
0.176471
0.191176
0.117647
0.058824
0.058824
0.058824
0.014706
0.014706
0.117647
0.058824
0.058824
0.014706
0.014706
0.455882
0.367647
0.367647
0.264706
0.264706
0.176471
0.176471
0.102941
0.176471
0.058824
0.058824
0.191176
0.117647
0.058824
0.058824
0.014706
0.014706
0.117647
0.058824
0.058824
0.014706
0.014706
0.023256
0.023256
0.020000
0.023256
0.017857
0.023256
0.020000
0.017857
0.017857
0.017857
0.065574
0.065574
0.023256
0.023256
0.020000
0.023256
0.017857
0.123077
0.123077
0.191176
0.123077
0.279412
0.023256
0.020000
0.017857
0.017857
0.017857
0.065574
0.065574
0.123077
0.123077
0.191176
0.123077
0.279412
0.264706
0.123077
0.123077
0.191176
0.279412
0.279412
0.279412
0.382353
0.382353
0.191176
0.279412
0.279412
0.382353
0.382353
0.023256
0.023256
0.020000
0.023256
0.017857
0.023256
0.020000
0.017857
0.017857
0.018868
0.065574
0.065574
0.024390
0.028571
0.022727
0.037037
0.022222
0.123077
0.123077
0.191176
0.129032
0.279412
0.470588
0.470588
0.455882
0.455882
0.382353
0.455882
0.470588
0.382353
0.382353
0.382353
0.279412
0.279412
0.470588
0.470588
0.455882
0.470588
0.367647
0.191176
0.191176
0.117647
0.191176
0.058824
0.014706
0.014706
0.014706
0.014706
0.014706
0.014706
0.014706
0.014706
0.014706
0.014706
0.058824
0.044118
0.014706
0.014706
0.014706
0.014706
0.014706
0.088235
0.102941
0.161765
0.102941
0.220588
0.014706
0.014706
0.014706
0.014706
0.014706
0.058824
0.058824
0.102941
0.102941
0.176471
0.102941
0.235294
0.220588
0.102941
0.102941
0.176471
0.235294
0.235294
0.235294
0.294118
0.308824
0.176471
0.235294
0.235294
0.308824
0.294118
0.014706
0.014706
0.014706
0.014706
0.014706
0.014706
0.014706
0.014706
0.014706
0.014706
0.044118
0.058824
0.014706
0.014706
0.014706
0.014706
0.014706
0.102941
0.102941
0.147059
0.073529
0.220588
0.397059
0.397059
0.720588
0.382353
0.750000
0.382353
0.705882
0.764706
0.750000
0.764706
0.808824
0.779412
0.397059
0.397059
0.735294
0.338235
0.808824
0.794118
0.808824
0.852941
0.823529
0.882353
0.028571
0.146341
0.090909
0.302326
0.150943
0.488372
0.400000
0.482143
0.303571
0.607143
0.672131
0.213115
0.627907
0.581395
0.540000
0.558140
0.482143
0.292308
0.476923
0.382353
0.615385
0.470588
0.534884
0.440000
0.392857
0.428571
0.392857
0.377049
0.442623
0.323077
0.323077
0.250000
0.353846
0.102941
0.147059
0.461538
0.323077
0.250000
0.102941
0.102941
0.102941
0.014706
0.014706
0.514706
0.264706
0.455882
0.102941
0.455882
0.534884
0.534884
0.440000
0.534884
0.392857
0.534884
0.440000
0.392857
0.392857
0.392857
0.377049
0.377049
0.534884
0.534884
0.440000
0.534884
0.392857
0.323077
0.323077
0.250000
0.323077
0.102941
0.367647
0.176471
0.264706
0.058824
0.191176
0.014706
0.014706
0.014706
0.058824
0.014706
0.014706
0.117647
0.014706
0.014706
0.014706
0.014706
0.014706
0.058824
0.014706
0.014706
0.014706
0.014706
0.534884
0.440000
0.392857
0.392857
0.392857
0.377049
0.377049
0.323077
0.323077
0.250000
0.323077
0.102941
0.102941
0.323077
0.323077
0.250000
0.102941
0.102941
0.102941
0.014706
0.014706
0.250000
0.102941
0.102941
0.014706
0.014706
0.014706
0.014706
0.014706
0.014706
0.014706
0.014706
0.014706
0.014706
0.014706
0.014706
0.014706
0.029412
0.014706
0.014706
0.014706
0.044118
0.088235
0.058824
0.147059
0.147059
0.058824
0.014706
0.014706
0.014706
0.014706
0.014706
0.014706
0.014706
0.014706
0.014706
0.014706
0.014706
0.014706
0.014706
0.014706
0.014706
0.014706
0.014706
0.044118
0.014706
0.014706
0.014706
0.014706
0.014706
0.014706
0.014706
0.014706
0.044118
0.073529
0.102941
0.088235
0.161765
0.014706
0.014706
0.014706
0.014706
0.014706
0.044118
0.014706
0.014706
0.014706
0.073529
0.014706
0.014706
0.088235
0.132353
0.117647
0.191176
0.147059
0.014706
0.014706
0.014706
0.014706
0.014706
0.534884
0.534884
0.440000
0.534884
0.392857
0.534884
0.440000
0.392857
0.392857
0.392857
0.377049
0.377049
0.534884
0.534884
0.440000
0.534884
0.392857
0.323077
0.323077
0.250000
0.323077
0.102941
0.581395
0.440000
0.428571
0.392857
0.517857
0.442623
0.377049
0.430769
0.353846
0.250000
0.323077
0.132353
0.102941
0.323077
0.538462
0.397059
0.367647
0.205882
0.470588
0.455882
0.102941
0.250000
0.102941
0.102941
0.014706
0.014706
0.697674
0.860465
0.640000
0.465116
0.642857
0.279070
0.380000
0.285714
0.464286
0.150943
0.196721
0.655738
0.146341
0.028571
0.090909
0.461538
0.276923
0.367647
0.014706
0.014706
0.014706
0.014706
0.014706
0.058824
0.014706
0.058824
0.014706
0.191176
0.117647
0.014706
0.176471
0.367647
0.264706
0.014706
0.058824
0.014706
0.014706
0.014706
0.014706
0.073529
0.044118
0.161765
0.161765
0.250000
0.132353
0.308824
0.308824
0.102941
0.205882
0.250000
0.294118
0.279412
0.735294
0.176471
0.294118
0.264706
0.823529
0.323529
0.235294
0.323529
0.367647
0.720588
0.294118
0.676471
0.838235
0.691176
0.750000
0.514706
0.823529
0.838235
0.970588
0.838235
0.602941
0.647059
0.647059
0.735294
0.191176
0.279412
0.794118
0.823529
0.882353
0.794118
0.926471
0.750000
0.191176
0.147059
0.205882
0.088235
0.205882
0.029412
0.073529
0.044118
0.132353
0.014706
0.029412
0.191176
0.014706
0.014706
0.014706
0.161765
0.073529
0.102941
0.867647
0.926471
0.926471
0.941176
0.897059
0.867647
0.823529
0.808824
0.941176
0.676471
0.705882
0.926471
0.750000
0.573529
0.632353
0.897059
0.779412
0.794118
VECTORS displacements double 
-0.000010 0.000000 0.000000
0.000010 0.000000 0.000000
0.000010 0.000000 0.000000
-0.000010 0.000000 0.000000
-0.000010 0.000000 0.000000
-0.000010 0.000000 0.000000
-0.000010 0.000000 0.000000
-0.000010 0.000000 0.000000
0.037000 0.074000 0.111000
0.037000 0.074000 0.111000
0.037000 0.074000 0.111000
0.037000 0.074000 0.111000
0.037000 0.074000 0.111000
0.037000 0.074000 0.111000
0.037000 0.074000 0.111000
0.037000 0.074000 0.111000
0.037000 0.074000 0.111000
0.037000 0.074000 0.111000
0.037000 0.074000 0.111000
0.037000 0.074000 0.111000
0.037000 0.074000 0.111000
0.037000 0.074000 0.111000
0.037000 0.074000 0.111000
0.037000 0.074000 0.111000
0.037000 0.074000 0.111000
0.037000 0.074000 0.111000
0.037000 0.074000 0.111000
0.037000 0.074000 0.111000
0.037000 0.074000 0.111000
0.037000 0.074000 0.111000
0.037000 0.074000 0.111000
0.000010 0.000000 0.000000