# vtk DataFile Version 2.0
Solution time step = 350 
ASCII

DATASET UNSTRUCTURED_GRID
POINTS 2113 double
0.000000 0.000000 0.000000
1.000000 0.000000 0.000000
1.000000 1.000000 0.000000
0.000000 1.000000 0.000000
0.031250 0.000000 0.000000
0.062500 0.000000 0.000000
0.093750 0.000000 0.000000
0.125000 0.000000 0.000000
0.156250 0.000000 0.000000
0.187500 0.000000 0.000000
0.218750 0.000000 0.000000
0.250000 0.000000 0.000000
0.281250 0.000000 0.000000
0.312500 0.000000 0.000000
0.343750 0.000000 0.000000
0.375000 0.000000 0.000000
0.406250 0.000000 0.000000
0.437500 0.000000 0.000000
0.468750 0.000000 0.000000
0.500000 0.000000 0.000000
0.531250 0.000000 0.000000
0.562500 0.000000 0.000000
0.593750 0.000000 0.000000
0.625000 0.000000 0.000000
0.656250 0.000000 0.000000
0.687500 0.000000 0.000000
0.718750 0.000000 0.000000
0.750000 0.000000 0.000000
0.781250 0.000000 0.000000
0.812500 0.000000 0.000000
0.843750 0.000000 0.000000
0.875000 0.000000 0.000000
0.906250 0.000000 0.000000
0.937500 0.000000 0.000000
0.968750 0.000000 0.000000
1.000000 0.031250 0.000000
1.000000 0.062500 0.000000
1.000000 0.093750 0.000000
1.000000 0.125000 0.000000
1.000000 0.156250 0.000000
1.000000 0.187500 0.000000
1.000000 0.218750 0.000000
1.000000 0.250000 0.000000
1.000000 0.281250 0.000000
1.000000 0.312500 0.000000
1.000000 0.343750 0.000000
1.000000 0.375000 0.000000
1.000000 0.406250 0.000000
1.000000 0.437500 0.000000
1.000000 0.468750 0.000000
1.000000 0.500000 0.000000
1.000000 0.531250 0.000000
1.000000 0.562500 0.000000
1.000000 0.593750 0.000000
1.000000 0.625000 0.000000
1.000000 0.656250 0.000000
1.000000 0.687500 0.000000
1.000000 0.718750 0.000000
1.000000 0.750000 0.000000
1.000000 0.781250 0.000000
1.000000 0.812500 0.000000
1.000000 0.843750 0.000000
1.000000 0.875000 0.000000
1.000000 0.906250 0.000000
1.000000 0.937500 0.000000
1.000000 0.968750 0.000000
0.968750 1.000000 0.000000
0.937500 1.000000 0.000000
0.906250 1.000000 0.000000
0.875000 1.000000 0.000000
0.843750 1.000000 0.000000
0.812500 1.000000 0.000000
0.781250 1.000000 0.000000
0.750000 1.000000 0.000000
0.718750 1.000000 0.000000
0.687500 1.000000 0.000000
0.656250 1.000000 0.000000
0.625000 1.000000 0.000000
0.593750 1.000000 0.000000
0.562500 1.000000 0.000000
0.531250 1.000000 0.000000
0.500000 1.000000 0.000000
0.468750 1.000000 0.000000
0.437500 1.000000 0.000000
0.406250 1.000000 0.000000
0.375000 1.000000 0.000000
0.343750 1.000000 0.000000
0.312500 1.000000 0.000000
0.281250 1.000000 0.000000
0.250000 1.000000 0.000000
0.218750 1.000000 0.000000
0.187500 1.000000 0.000000
0.156250 1.000000 0.000000
0.125000 1.000000 0.000000
0.093750 1.000000 0.000000
0.062500 1.000000 0.000000
0.031250 1.000000 0.000000
0.000000 0.968750 0.000000
0.000000 0.937500 0.000000
0.000000 0.906250 0.000000
0.000000 0.875000 0.000000
0.000000 0.843750 0.000000
0.000000 0.812500 0.000000
0.000000 0.781250 0.000000
0.000000 0.750000 0.000000
0.000000 0.718750 0.000000
0.000000 0.687500 0.000000
0.000000 0.656250 0.000000
0.000000 0.625000 0.000000
0.000000 0.593750 0.000000
0.000000 0.562500 0.000000
0.000000 0.531250 0.000000
0.000000 0.500000 0.000000
0.000000 0.468750 0.000000
0.000000 0.437500 0.000000
0.000000 0.406250 0.000000
0.000000 0.375000 0.000000
0.000000 0.343750 0.000000
0.000000 0.312500 0.000000
0.000000 0.281250 0.000000
0.000000 0.250000 0.000000
0.000000 0.218750 0.000000
0.000000 0.187500 0.000000
0.000000 0.156250 0.000000
0.000000 0.125000 0.000000
0.000000 0.093750 0.000000
0.000000 0.062500 0.000000
0.000000 0.031250 0.000000
0.500000 0.500000 0.000000
0.750000 0.250000 0.000000
0.250000 0.250000 0.000000
0.250000 0.750000 0.000000
0.750000 0.750000 0.000000
0.375000 0.125000 0.000000
0.125000 0.125000 0.000000
0.625000 0.125000 0.000000
0.500000 0.250000 0.000000
0.875000 0.125000 0.000000
0.625000 0.375000 0.000000
0.375000 0.375000 0.000000
0.125000 0.375000 0.000000
0.250000 0.500000 0.000000
0.125000 0.625000 0.000000
0.375000 0.625000 0.000000
0.125000 0.875000 0.000000
0.875000 0.375000 0.000000
0.875000 0.625000 0.000000
0.750000 0.500000 0.000000
0.875000 0.875000 0.000000
0.625000 0.625000 0.000000
0.625000 0.875000 0.000000
0.375000 0.875000 0.000000
0.500000 0.750000 0.000000
0.187500 0.062500 0.000000
0.062500 0.062500 0.000000
0.312500 0.062500 0.000000
0.250000 0.125000 0.000000
0.437500 0.062500 0.000000
0.312500 0.187500 0.000000
0.187500 0.187500 0.000000
0.562500 0.062500 0.000000
0.500000 0.125000 0.000000
0.562500 0.187500 0.000000
0.437500 0.187500 0.000000
0.687500 0.187500 0.000000
0.625000 0.250000 0.000000
0.375000 0.250000 0.000000
0.687500 0.062500 0.000000
0.812500 0.062500 0.000000
0.750000 0.125000 0.000000
0.937500 0.062500 0.000000
0.812500 0.187500 0.000000
0.437500 0.312500 0.000000
0.312500 0.312500 0.000000
0.562500 0.312500 0.000000
0.500000 0.375000 0.000000
0.687500 0.312500 0.000000
0.562500 0.437500 0.000000
0.437500 0.437500 0.000000
0.062500 0.187500 0.000000
0.125000 0.250000 0.000000
0.062500 0.312500 0.000000
0.187500 0.312500 0.000000
0.062500 0.437500 0.000000
0.250000 0.375000 0.000000
0.187500 0.437500 0.000000
0.187500 0.562500 0.000000
0.125000 0.500000 0.000000
0.250000 0.625000 0.000000
0.187500 0.687500 0.000000
0.062500 0.562500 0.000000
0.312500 0.437500 0.000000
0.375000 0.500000 0.000000
0.312500 0.562500 0.000000
0.437500 0.562500 0.000000
0.312500 0.687500 0.000000
0.062500 0.687500 0.000000
0.125000 0.750000 0.000000
0.062500 0.812500 0.000000
0.187500 0.812500 0.000000
0.062500 0.937500 0.000000
0.937500 0.187500 0.000000
0.937500 0.312500 0.000000
0.875000 0.250000 0.000000
0.937500 0.437500 0.000000
0.812500 0.312500 0.000000
0.937500 0.562500 0.000000
0.875000 0.500000 0.000000
0.812500 0.562500 0.000000
0.812500 0.437500 0.000000
0.812500 0.687500 0.000000
0.750000 0.625000 0.000000
0.750000 0.375000 0.000000
0.937500 0.687500 0.000000
0.937500 0.812500 0.000000
0.875000 0.750000 0.000000
0.937500 0.937500 0.000000
0.812500 0.812500 0.000000
0.687500 0.437500 0.000000
0.687500 0.562500 0.000000
0.625000 0.500000 0.000000
0.687500 0.687500 0.000000
0.562500 0.562500 0.000000
0.812500 0.937500 0.000000
0.687500 0.937500 0.000000
0.750000 0.875000 0.000000
0.562500 0.937500 0.000000
0.687500 0.812500 0.000000
0.437500 0.937500 0.000000
0.500000 0.875000 0.000000
0.437500 0.812500 0.000000
0.562500 0.812500 0.000000
0.312500 0.812500 0.000000
0.375000 0.750000 0.000000
0.625000 0.750000 0.000000
0.312500 0.937500 0.000000
0.187500 0.937500 0.000000
0.250000 0.875000 0.000000
0.562500 0.687500 0.000000
0.437500 0.687500 0.000000
0.500000 0.625000 0.000000
0.093750 0.031250 0.000000
0.031250 0.031250 0.000000
0.156250 0.031250 0.000000
0.125000 0.062500 0.000000
0.218750 0.031250 0.000000
0.156250 0.093750 0.000000
0.093750 0.093750 0.000000
0.281250 0.031250 0.000000
0.250000 0.062500 0.000000
0.281250 0.093750 0.000000
0.218750 0.093750 0.000000
0.343750 0.093750 0.000000
0.312500 0.125000 0.000000
0.187500 0.125000 0.000000
0.343750 0.031250 0.000000
0.406250 0.031250 0.000000
0.375000 0.062500 0.000000
0.468750 0.031250 0.000000
0.406250 0.093750 0.000000
0.218750 0.156250 0.000000
0.156250 0.156250 0.000000
0.281250 0.156250 0.000000
0.250000 0.187500 0.000000
0.343750 0.156250 0.000000
0.281250 0.218750 0.000000
0.218750 0.218750 0.000000
0.531250 0.031250 0.000000
0.500000 0.062500 0.000000
0.531250 0.093750 0.000000
0.468750 0.093750 0.000000
0.593750 0.093750 0.000000
0.562500 0.125000 0.000000
0.437500 0.125000 0.000000
0.593750 0.156250 0.000000
0.531250 0.156250 0.000000
0.500000 0.187500 0.000000
0.468750 0.156250 0.000000
0.531250 0.218750 0.000000
0.468750 0.218750 0.000000
0.406250 0.156250 0.000000
0.656250 0.156250 0.000000
0.625000 0.187500 0.000000
0.656250 0.218750 0.000000
0.593750 0.218750 0.000000
0.718750 0.218750 0.000000
0.687500 0.250000 0.000000
0.562500 0.250000 0.000000
0.375000 0.187500 0.000000
0.406250 0.218750 0.000000
0.343750 0.218750 0.000000
0.437500 0.250000 0.000000
0.312500 0.250000 0.000000
0.593750 0.031250 0.000000
0.656250 0.031250 0.000000
0.625000 0.062500 0.000000
0.718750 0.031250 0.000000
0.656250 0.093750 0.000000
0.781250 0.031250 0.000000
0.750000 0.062500 0.000000
0.781250 0.093750 0.000000
0.718750 0.093750 0.000000
0.843750 0.093750 0.000000
0.812500 0.125000 0.000000
0.687500 0.125000 0.000000
0.843750 0.031250 0.000000
0.906250 0.031250 0.000000
0.875000 0.062500 0.000000
0.968750 0.031250 0.000000
0.906250 0.093750 0.000000
0.718750 0.156250 0.000000
0.781250 0.156250 0.000000
0.750000 0.187500 0.000000
0.843750 0.156250 0.000000
0.781250 0.218750 0.000000
0.343750 0.281250 0.000000
0.281250 0.281250 0.000000
0.406250 0.281250 0.000000
0.375000 0.312500 0.000000
0.468750 0.281250 0.000000
0.406250 0.343750 0.000000
0.343750 0.343750 0.000000
0.531250 0.281250 0.000000
0.500000 0.312500 0.000000
0.531250 0.343750 0.000000
0.468750 0.343750 0.000000
0.593750 0.343750 0.000000
0.562500 0.375000 0.000000
0.437500 0.375000 0.000000
0.593750 0.281250 0.000000
0.656250 0.281250 0.000000
0.625000 0.312500 0.000000
0.718750 0.281250 0.000000
0.656250 0.343750 0.000000
0.468750 0.406250 0.000000
0.406250 0.406250 0.000000
0.531250 0.406250 0.000000
0.500000 0.437500 0.000000
0.593750 0.406250 0.000000
0.531250 0.468750 0.000000
0.468750 0.468750 0.000000
0.031250 0.093750 0.000000
0.062500 0.125000 0.000000
0.031250 0.156250 0.000000
0.093750 0.156250 0.000000
0.031250 0.218750 0.000000
0.125000 0.187500 0.000000
0.093750 0.218750 0.000000
0.093750 0.281250 0.000000
0.062500 0.250000 0.000000
0.125000 0.312500 0.000000
0.093750 0.343750 0.000000
0.031250 0.281250 0.000000
0.156250 0.218750 0.000000
0.187500 0.250000 0.000000
0.156250 0.281250 0.000000
0.218750 0.281250 0.000000
0.156250 0.343750 0.000000
0.031250 0.343750 0.000000
0.062500 0.375000 0.000000
0.031250 0.406250 0.000000
0.093750 0.406250 0.000000
0.031250 0.468750 0.000000
0.250000 0.312500 0.000000
0.218750 0.343750 0.000000
0.218750 0.406250 0.000000
[...]
POINT_DATA 2113
SCALARS damage double
LOOKUP_TABLE default
0.000000
0.000000
0.000000
0.000000
-0.000000
0.062500
0.194444
0.333333
0.444444
0.250000
0.083333
0.000000
0.000000
0.111111
0.222222
0.500000
0.277778
0.222222
0.111111
0.000000
0.000000
0.000000
0.000000
0.000000
0.000000
0.000000
0.000000
0.000000
0.000000
0.055556
0.027778
0.138889
0.000000
0.000000
-0.000000
-0.000000
0.000000
0.000000
0.000000
0.000000
0.000000
0.000000
0.000000
0.000000
0.000000
0.000000
0.000000
0.000000
0.000000
0.000000
0.000000
0.000000
0.000000
0.000000
0.000000
0.000000
0.000000
0.000000
0.000000
0.000000
0.000000
0.000000
0.000000
0.000000
0.000000
-0.000000
-0.000000
0.062500
0.194444
0.333333
0.444444
0.250000
0.083333
0.000000
0.027778
0.111111
0.222222
0.500000
0.222222
0.166667
0.083333
0.000000
0.000000
0.000000
0.000000
0.000000
0.000000
0.000000
0.000000
0.000000
0.000000
0.055556
0.027778
0.138889
0.000000
0.000000
-0.000000
-0.000000
0.000000
0.000000
0.000000
0.000000
0.000000
0.000000
0.000000
0.000000
0.000000
0.000000
0.000000
0.000000
0.000000
0.000000
0.000000
0.000000
0.000000
0.000000
0.000000
0.000000
0.000000
0.000000
0.000000
0.000000
0.000000
0.000000
0.000000
0.000000
0.000000
-0.000000
0.447761
0.000000
0.000000
0.000000
0.000000
0.194030
0.223881
0.000000
0.417910
0.014925
0.000000
0.000000
0.000000
0.000000
0.000000
0.000000
0.014925
0.000000
0.000000
0.000000
0.238806
0.000000
0.208955
0.000000
0.388060
0.300000
0.037736
0.016667
0.014925
0.383333
0.000000
0.000000
0.000000
0.134328
0.000000
0.388060
0.000000
0.000000
0.014925
0.000000
0.016667
0.000000
0.000000
0.000000
0.194030
0.000000
0.149254
0.462687
0.000000
0.164179
0.104478
0.000000
0.000000
0.000000
0.000000
0.000000
0.000000
0.000000
0.000000
0.000000
0.000000
0.000000
0.000000
0.000000
0.000000
0.000000
0.104478
0.000000
0.000000
0.000000
0.000000
0.000000
0.000000
0.000000
0.000000
0.000000
0.000000
0.000000
0.000000
0.000000
0.000000
0.000000
0.000000
0.000000
0.000000
0.000000
0.000000
0.000000
0.037736
0.014925
0.000000
0.000000
0.000000
0.000000
0.164179
0.300000
0.033333
0.014925
0.366667
0.000000
0.000000
0.134328
0.000000
0.388060
0.000000
0.000000
0.014925
0.000000
0.016667
0.000000
0.253731
0.104478
0.462687
0.183673
0.000000
0.448980
0.316667
0.122449
0.462687
0.149254
0.000000
0.016667
0.000000
0.134328
0.089552
0.000000
0.268657
0.183673
0.428571
0.283333
0.183673
0.358209
0.029851
0.089552
0.000000
0.000000
0.014925
0.000000
0.000000
0.000000
0.050000
0.000000
0.268657
0.000000
0.000000
0.388060
0.000000
0.044776
0.253731
0.313433
0.164179
0.507463
0.298507
0.000000
0.000000
0.000000
0.000000
0.000000
0.000000
0.044776
0.089552
0.194030
0.000000
0.283582
0.000000
0.000000
0.000000
0.000000
0.000000
0.000000
0.020408
0.000000
0.000000
0.000000
0.029851
0.000000
0.000000
0.081633
0.000000
0.016667
0.000000
0.000000
0.000000
0.000000
0.000000
0.014925
0.000000
0.000000
0.000000
0.074627
0.000000
0.358209
0.014925
0.000000
0.283582
0.492537
0.328358
0.313433
0.029851
0.164179
0.119403
0.000000
0.000000
0.000000
0.000000
0.000000
0.283582
0.000000
0.343284
0.462687
0.044776
0.358209
0.268657
0.000000
0.016667
0.000000
0.059701
0.000000
0.134328
0.000000
0.000000
0.000000
0.000000
0.000000
0.000000
0.014925
0.000000
0.000000
0.000000
0.000000
0.000000
0.000000
0.000000
0.000000
0.000000
0.000000
0.000000
0.000000
0.000000
0.000000
0.000000
0.000000
0.000000
0.000000
0.000000
0.000000
0.000000
0.000000
0.000000
0.000000
0.000000
0.000000
0.000000
0.000000
0.000000
0.000000
0.000000
0.000000
0.000000
0.000000
0.000000
0.000000
0.000000
0.000000
0.000000
0.000000
0.000000
0.000000
0.000000
0.000000
0.000000
0.000000
0.000000
0.000000
0.104478
0.000000
0.268657
0.000000
0.000000
0.000000
0.000000
0.000000
0.000000
0.000000
0.000000
0.000000
0.000000
0.000000
0.000000
0.000000
0.000000
0.000000
0.000000
0.000000
0.000000
0.000000
0.000000
0.000000
0.000000
0.014925
0.000000
0.000000
0.000000
0.000000
0.000000
0.000000
0.000000
0.000000
0.000000
0.000000
0.000000
0.000000
0.000000
0.000000
0.000000
0.000000
0.000000
0.000000
0.000000
0.000000
0.000000
0.000000
0.000000
0.000000
0.000000
0.000000
0.000000
0.000000
0.000000
0.000000
0.000000
0.000000
0.000000
0.000000
0.000000
0.000000
0.000000
0.000000
0.000000
0.000000
0.000000
0.000000
0.000000
0.000000
0.000000
0.000000
0.000000
0.000000
0.000000
0.000000
0.000000
0.000000
0.000000
0.000000
0.000000
0.000000
0.000000
0.000000
0.000000
0.000000
0.000000
0.000000
0.059701
0.134328
0.000000
0.000000
0.000000
0.016667
0.000000
0.149254
0.000000
0.014925
0.000000
0.104478
0.000000
0.000000
0.000000
0.000000
0.000000
0.000000
0.000000
0.000000
0.000000
0.000000
0.000000
0.000000
0.000000
0.000000
0.000000
0.000000
0.000000
0.000000
0.029851
0.029851
0.164179
0.044776
0.358209
0.183673
0.448980
0.316667
0.122449
0.477612
0.020408
0.016667
0.000000
0.119403
0.089552
0.000000
0.283582
0.204082
0.387755
0.283333
0.163265
0.358209
0.029851
0.000000
0.000000
0.029851
0.000000
0.000000
0.050000
0.000000
0.268657
0.000000
0.000000
0.388060
0.000000
0.044776
0.253731
0.313433
0.149254
0.477612
0.298507
0.000000
0.000000
0.000000
0.000000
0.000000
0.000000
0.029851
0.104478
0.194030
0.000000
0.298507
0.000000
0.000000
0.000000
0.000000
0.000000
0.000000
0.020408
0.000000
0.000000
0.000000
0.029851
0.014925
0.000000
0.081633
0.000000
0.016667
0.000000
0.000000
0.000000
0.000000
0.104478
0.000000
0.447761
0.059701
0.238806
0.492537
0.253731
0.388060
0.000000
0.104478
0.194030
0.000000
0.000000
0.000000
0.358209
0.268657
0.462687
0.000000
-0.000000
0.125000
0.069767
0.261905
0.115385
-0.000000
0.404762
0.326531
0.381818
0.236364
0.381818
0.483333
0.166667
0.357143
0.190476
0.285714
0.047619
0.200000
0.234375
0.081967
0.375000
0.283582
0.375000
0.328358
0.179104
0.000000
0.000000
0.000000
0.072727
0.000000
0.000000
0.133333
0.000000
0.000000
0.014925
0.062500
0.000000
0.059701
0.218750
0.046875
0.000000
0.014925
0.000000
0.134328
0.044776
0.000000
0.298507
0.208955
0.358209
0.104478
0.343284
0.047619
0.142857
0.081633
0.285714
0.109091
0.595238
0.326531
0.363636
0.218182
0.418182
0.416667
0.116667
0.285714
0.214286
0.346939
0.071429
0.309091
0.187500
0.281250
0.223881
0.453125
0.283582
0.119403
0.283582
0.104478
0.059701
0.059701
0.014925
0.044776
0.000000
0.000000
0.000000
0.000000
0.000000
0.000000
0.000000
0.000000
0.000000
0.000000
0.089552
0.000000
0.000000
0.000000
0.000000
0.000000
0.000000
0.000000
0.000000
0.000000
0.020408
0.000000
0.127273
0.000000
0.000000
0.216667
0.000000
0.015625
0.089552
0.156250
0.044776
0.194030
0.312500
0.000000
0.000000
0.000000
0.000000
0.000000
0.000000
0.014925
0.402985
0.328358
0.447761
0.268657
0.328358
0.000000
0.000000
0.000000
0.000000
0.000000
0.014925
0.089552
0.089552
0.134328
0.283582
0.194030
0.402985
0.432836
0.238806
0.059701
0.208955
0.328358
0.358209
0.283582
0.447761
0.432836
0.358209
0.477612
0.402985
0.328358
0.253731
0.000000
0.000000
0.000000
0.000000
0.000000
0.000000
0.000000
0.000000
0.000000
0.000000
0.000000
0.000000
0.000000
0.000000
0.000000
0.000000
0.000000
0.000000
0.000000
0.000000
0.000000
0.014925
0.000000
0.134328
0.000000
0.223881
0.164179
0.194030
0.059701
0.238806
0.000000
0.283582
0.134328
0.044776
0.014925
0.089552
0.000000
0.000000
0.328358
0.373134
0.223881
0.402985
0.119403
0.000000
0.000000
0.000000
0.000000
0.000000
0.000000
0.000000
0.000000
0.000000
0.000000
0.000000
0.000000
0.000000
0.000000
0.000000
0.000000
0.000000
0.000000
0.000000
0.000000
0.000000
0.000000
0.000000
0.000000
0.000000
0.000000
0.000000
0.023810
0.000000
0.000000
0.000000
0.036364
0.016667
0.000000
0.000000
0.000000
0.000000
0.000000
0.000000
0.000000
0.000000
0.015625
0.014925
0.014925
0.000000
0.029851
0.014925
0.000000
0.000000
0.000000
0.000000
0.000000
0.000000
0.047619
0.047619
0.020408
0.214286
0.054545
0.023810
0.040816
0.000000
0.090909
-0.000000
0.000000
0.033333
-0.000000
0.000000
0.000000
-0.000000
-0.000000
0.046875
0.000000
0.014925
-0.000000
0.000000
0.000000
0.000000
0.000000
0.000000
0.000000
0.000000
0.000000
0.000000
0.000000
0.000000
0.000000
0.000000
0.000000
0.014925
0.000000
0.029851
0.014925
0.000000
0.000000
0.000000
0.000000
0.000000
0.000000
0.000000
0.000000
0.000000
0.000000
0.000000
0.000000
0.044776
0.000000
0.014925
0.000000
0.119403
0.044776
0.000000
0.179104
0.313433
0.223881
0.492537
0.283582
0.000000
0.000000
0.000000
0.000000
0.089552
0.000000
0.000000
0.358209
0.477612
0.417910
0.462687
0.238806
0.313433
0.343284
0.238806
0.432836
0.552239
0.432836
0.402985
0.417910
0.268657
0.074627
0.149254
0.089552
0.238806
0.000000
0.044776
0.343284
0.164179
0.238806
0.059701
0.298507
0.000000
0.179104
0.014925
0.119403
0.000000
0.044776
0.000000
0.000000
0.000000
0.000000
0.000000
0.000000
0.014925
0.000000
0.000000
0.000000
0.000000
0.000000
0.000000
0.000000
0.000000
0.000000
0.000000
0.044776
0.000000
0.194030
0.104478
0.388060
0.179104
0.044776
0.447761
0.462687
0.447761
0.373134
0.253731
0.358209
0.268657
0.253731
0.104478
0.179104
0.000000
0.104478
0.373134
0.179104
0.447761
0.462687
0.253731
0.447761
0.373134
0.000000
0.000000
-0.000000
-0.000000
0.000000
0.016667
0.000000
0.000000
0.000000
0.016667
0.000000
0.000000
0.062500
0.089552
0.031250
0.134328
0.015625
0.000000
0.000000
0.000000
0.000000
0.000000
0.179104
0.089552
0.014925
0.014925
0.000000
0.000000
0.000000
0.000000
0.000000
0.000000
0.000000
0.000000
0.000000
0.000000
0.000000
0.000000
0.000000
0.000000
0.000000
0.000000
0.000000
0.000000
0.000000
0.000000
0.000000
0.000000
0.223881
0.044776
0.044776
0.014925
0.014925
0.000000
0.000000
0.000000
0.000000
0.000000
0.000000
0.000000
0.000000
0.000000
0.000000
0.000000
0.000000
0.000000
0.000000
0.000000
0.000000
0.000000
0.000000
0.000000
0.000000
0.000000
0.000000
0.000000
0.000000
0.000000
0.000000
0.000000
0.000000
0.000000
0.000000
0.000000
0.000000
0.000000
0.000000
0.000000
0.000000
0.000000
0.000000
0.000000
0.000000
0.000000
0.000000
0.000000
0.000000
0.000000
0.000000
0.000000
0.000000
0.000000
0.000000
0.000000
0.000000
0.000000
0.000000
0.000000
0.000000
0.000000
0.000000
0.000000
0.000000
0.000000
0.000000
0.000000
0.000000
0.000000
0.000000
0.000000
0.000000
0.000000
0.000000
0.000000
0.000000
0.000000
0.000000
0.000000
0.000000
0.000000
0.000000
0.000000
0.000000
0.000000
0.000000
0.000000
0.000000
0.000000
0.000000
0.000000
0.000000
0.000000
0.000000
0.000000
0.000000
0.000000
0.000000
0.000000
0.000000
0.000000
0.000000
0.000000
0.000000
0.000000
0.000000
0.000000
0.000000
0.000000
0.000000
0.000000
0.000000
0.000000
0.000000
0.000000
0.000000
0.000000
0.000000
0.000000
0.000000
0.000000
0.000000
0.000000
0.000000
0.000000
0.000000
0.000000
0.000000
0.000000
0.000000
0.000000
0.000000
0.000000
0.000000
0.000000
0.000000
0.000000
0.000000
0.000000
0.000000
0.000000
0.000000
0.000000
0.000000
0.000000
0.000000
0.000000
0.000000
0.000000
0.000000
0.000000
0.000000
0.000000
0.000000
0.000000
0.000000
0.000000
0.000000
0.000000
0.000000
0.000000
0.000000
0.000000
0.000000
0.000000
0.000000
0.000000
0.000000
0.000000
0.000000
0.000000
0.000000
0.000000
0.000000
0.000000
0.000000
0.000000
0.000000
0.000000
0.000000
0.000000
0.000000
0.000000
0.000000
0.000000
0.000000
0.000000
0.000000
0.000000
0.000000
0.000000
0.000000
0.000000
0.000000
0.044776
0.000000
0.104478
0.044776
0.044776
0.000000
0.104478
0.044776
0.000000
0.179104
0.268657
0.179104
0.373134
0.179104
0.000000
0.000000
0.000000
0.044776
0.000000
0.000000
0.000000
0.000000
0.000000
0.000000
0.000000
0.000000
0.000000
0.000000
0.000000
0.000000
0.000000
0.000000
0.000000
0.000000
0.000000
0.000000
0.000000
0.000000
0.000000
0.000000
0.000000
0.000000
0.000000
0.000000
0.000000
0.000000
0.000000
0.000000
0.000000
0.000000
0.000000
0.000000
0.000000
0.000000
0.000000
0.000000
0.000000
0.000000
0.000000
0.000000
0.000000
0.000000
0.000000
0.000000
0.000000
0.000000
0.000000
0.000000
0.000000
0.000000
0.000000
0.000000
0.000000
0.000000
0.000000
0.000000
0.000000
0.000000
0.000000
0.000000
0.000000
0.000000
0.000000
0.000000
0.000000
0.000000
0.000000
0.000000
0.000000
0.000000
0.000000
0.000000
0.000000
0.000000
0.000000
0.000000
0.000000
0.000000
0.000000
0.014925
0.000000
0.000000
0.000000
0.000000
0.000000
0.000000
0.014925
0.000000
0.014925
0.014925
0.029851
0.000000
0.000000
0.000000
0.000000
0.000000
0.000000
0.000000
0.000000
0.000000
0.000000
-0.000000
0.000000
0.000000
0.000000
0.000000
0.000000
-0.000000
-0.000000
0.000000
0.000000
-0.000000
-0.000000
0.000000
-0.000000
0.000000
0.000000
-0.000000
0.000000
0.000000
0.000000
0.000000
0.000000
0.000000
0.000000
0.000000
0.000000
0.000000
0.000000
0.000000
0.000000
0.000000
0.000000
0.000000
0.000000
0.000000
0.000000
0.000000
0.000000
0.000000
0.000000
0.000000
0.000000
0.000000
0.000000
0.000000
0.000000
0.000000
0.000000
0.000000
0.000000
0.000000
0.000000
0.000000
0.000000
0.000000
0.000000
0.000000
0.000000
0.000000
0.000000
0.000000
0.000000
0.000000
0.000000
0.000000
0.000000
0.000000
0.000000
0.000000
0.000000
0.000000
0.000000
0.000000
0.000000
0.000000
0.000000
0.000000
0.000000
0.000000
0.000000
0.000000
0.000000
0.014925
0.014925
0.000000
0.000000
0.014925
0.000000
0.000000
0.000000
0.000000
0.000000
0.000000
0.000000
0.000000
0.000000
0.000000
0.000000
0.000000
0.000000
0.000000
0.000000
0.000000
0.000000
0.000000
0.000000
0.000000
0.000000
0.000000
0.000000
0.000000
0.000000
0.000000
0.000000
0.000000
0.000000
0.000000
0.000000
0.000000
0.000000
0.000000
0.000000
0.000000
0.000000
0.000000
0.000000
0.000000
0.000000
0.000000
0.000000
0.000000
0.000000
0.000000
0.000000
0.000000
0.000000
0.000000
0.000000
0.000000
0.000000
0.000000
0.000000
0.000000
0.000000
0.000000
0.000000
0.000000
0.000000
0.000000
0.000000
0.000000
0.000000
0.000000
0.000000
0.000000
0.000000
0.000000
0.000000
0.000000
0.000000
0.000000
0.000000
0.000000
0.000000
0.000000
0.000000
0.000000
0.000000
0.000000
0.000000
0.000000
0.000000
0.000000
0.000000
0.000000
0.000000
0.000000
0.000000
0.000000
0.000000
0.000000
0.000000
0.000000
0.000000
0.000000
0.000000
0.000000
0.000000
0.000000
0.000000
0.000000
0.000000
0.000000
0.000000
0.000000
0.000000
0.000000
0.000000
0.000000
0.000000
0.000000
0.000000
0.000000
0.000000
0.000000
0.000000
0.000000
0.000000
0.000000
0.000000
0.000000
0.000000
0.000000
0.000000
0.000000
0.000000
0.000000
0.000000
0.000000
0.000000
0.000000
0.000000
0.000000
0.000000
0.000000
0.000000
0.000000
0.000000
0.000000
0.000000
0.000000
0.000000
0.000000
0.000000
0.000000
0.000000
0.000000
0.000000
0.000000
0.000000
0.031250
0.029851
0.104478
0.029851
0.134328
0.179104
0.029851
0.000000
0.000000
0.000000
0.000000
0.000000
0.000000
0.000000
0.000000
0.000000
0.000000
0.000000
0.000000
0.000000
0.000000
-0.000000
0.033333
0.016667
-0.000000
0.000000
0.000000
-0.000000
-0.000000
0.046875
0.062500
0.104478
0.081967
0.208955
0.000000
0.000000
0.000000
0.000000
0.000000
0.014925
0.000000
0.000000
0.000000
0.014925
0.000000
0.000000
0.119403
0.223881
0.044776
0.283582
0.044776
0.000000
0.000000
0.000000
0.000000
0.000000
0.000000
0.000000
0.000000
0.000000
0.000000
0.000000
0.000000
0.000000
0.000000
0.000000
0.000000
0.000000
0.000000
0.000000
0.000000
0.000000
0.000000
0.000000
0.000000
0.000000
0.000000
0.000000
0.000000
0.000000
0.000000
0.000000
0.000000
0.000000
0.000000
0.000000
0.000000
0.000000
0.000000
0.000000
0.000000
0.000000
0.000000
0.000000
0.000000
0.000000
0.000000
0.000000
0.000000
0.000000
0.000000
0.000000
0.000000
0.000000
0.000000
0.000000
0.000000
0.000000
0.000000
0.000000
0.000000
0.000000
0.000000
0.000000
0.000000
0.000000
0.000000
0.000000
0.000000
0.000000
0.000000
0.000000
0.000000
0.000000
0.000000
0.000000
0.000000
0.000000
0.044776
0.000000
0.089552
0.000000
0.029851
0.089552
0.089552
0.089552
0.164179
0.164179
0.000000
0.000000
0.044776
0.000000
0.104478
0.253731
0.253731
0.358209
0.253731
0.447761
0.000000
0.125000
0.069767
0.261905
0.115385
0.404762
0.326531
0.381818
0.236364
0.381818
0.483333
0.166667
0.357143
0.190476
0.285714
0.047619
0.200000
0.234375
0.375000
0.283582
0.390625
0.343284
0.000000
0.000000
0.000000
0.072727
0.018182
0.000000
0.133333
0.000000
0.000000
0.014925
0.062500
0.000000
0.059701
0.218750
0.062500
0.000000
0.014925
0.000000
0.134328
0.059701
0.000000
0.298507
0.208955
0.343284
0.104478
0.358209
0.047619
0.142857
0.081633
0.285714
0.109091
0.476190
0.326531
0.381818
0.236364
0.436364
0.433333
0.133333
0.285714
0.190476
0.326531
0.047619
0.290909
0.187500
0.296875
0.223881
0.437500
0.283582
0.268657
0.149254
0.089552
0.059701
0.014925
0.000000
0.000000
0.000000
0.000000
0.000000
0.000000
0.000000
0.000000
0.000000
0.000000
0.134328
0.000000
0.000000
0.000000
0.000000
0.000000
0.000000
0.000000
0.020408
0.000000
0.090909
0.000000
0.000000
0.216667
0.000000
0.015625
0.089552
0.156250
0.044776
0.208955
0.296875
0.000000
0.000000
0.000000
0.000000
0.000000
0.000000
0.014925
0.402985
0.328358
0.492537
0.268657
0.328358
0.000000
0.000000
0.000000
0.000000
0.000000
0.014925
0.089552
0.089552
0.149254
0.298507
0.194030
0.402985
0.432836
0.238806
0.059701
0.194030
0.313433
0.358209
0.268657
0.417910
0.462687
0.358209
0.567164
0.432836
0.328358
0.268657
0.000000
0.000000
0.000000
0.000000
0.000000
0.000000
0.000000
0.000000
0.000000
0.000000
0.000000
0.000000
0.000000
0.000000
0.000000
0.000000
0.000000
0.000000
0.000000
0.000000
0.000000
0.014925
0.000000
0.089552
0.000000
0.194030
0.164179
0.194030
0.059701
0.253731
0.014925
0.283582
0.149254
0.044776
0.014925
0.089552
0.000000
0.000000
0.343284
0.388060
0.253731
0.492537
0.149254
0.000000
0.000000
0.000000
0.000000
0.000000
0.000000
0.000000
0.000000
0.000000
0.000000
0.000000
0.000000
0.000000
0.000000
0.000000
0.000000
0.000000
0.000000
0.000000
0.000000
0.000000
0.000000
0.000000
0.000000
0.000000
0.000000
0.000000
0.023810
0.000000
0.000000
0.000000
0.036364
0.016667
0.000000
0.000000
0.000000
0.000000
0.000000
0.000000
0.000000
0.000000
0.015625
0.014925
0.014925
0.000000
0.044776
0.014925
0.000000
0.000000
0.000000
0.000000
0.000000
0.000000
0.047619
0.047619
0.020408
0.214286
0.054545
0.023810
0.040816
0.000000
0.090909
-0.000000
0.000000
0.033333
-0.000000
0.000000
0.000000
0.046875
0.000000
0.014925
0.000000
0.000000
0.000000
0.000000
0.000000
0.000000
0.000000
0.000000
0.000000
0.000000
0.000000
0.000000
0.000000
0.014925
0.000000
0.000000
0.000000
0.000000
0.000000
0.000000
0.000000
0.000000
0.000000
0.059701
0.000000
0.029851
0.000000
0.179104
0.074627
0.000000
0.223881
0.373134
0.268657
0.462687
0.328358
0.000000
0.014925
0.000000
0.134328
0.000000
0.298507
0.432836
0.358209
0.582090
0.194030
0.268657
0.402985
0.179104
0.358209
0.477612
0.462687
0.358209
0.462687
0.328358
0.029851
0.089552
0.044776
0.179104
0.000000
0.000000
0.253731
0.208955
0.298507
0.119403
0.388060
0.044776
0.134328
0.000000
0.059701
0.000000
0.014925
0.000000
0.000000
0.000000
0.000000
0.000000
0.000000
0.000000
0.000000
0.000000
0.000000
0.000000
0.000000
0.000000
0.104478
0.283582
0.179104
0.447761
0.253731
0.358209
0.462687
0.373134
0.447761
0.179104
0.268657
0.358209
0.179104
0.044776
0.104478
0.447761
0.373134
0.462687
VECTORS displacements double 
-0.001750 0.000000 0.000000
0.001750 0.000000 0.000000
0.001750 0.000000 0.000000
-0.001750 0.000000 0.000000
-0.001750 0.000000 0.000000
-0.001750 0.000000 0.000000
-0.001750 0.000000 0.000000
-0.001750 0.000000 0.000000
-0.000487 -0.000203 0.000000
-0.000473 -0.000114 0.000000
-0.000469 -0.000022 0.000000
-0.000471 0.000078 0.000000
-0.000459 0.000168 0.000000
-0.000465 0.000253 0.000000
-0.000449 0.000346 0.000000
-0.000092 0.000535 0.000000
0.000409 0.000917 0.000000
0.000475 0.000824 0.000000
0.000568 0.000651 0.000000
0.000643 0.000557 0.000000
0.000724 0.000478 0.000000
0.000803 0.000415 0.000000
0.000884 0.000365 0.000000
0.000967 0.000323 0.000000
0.001051 0.000293 0.000000
0.001134 0.000265 0.000000
0.001219 0.000242 0.000000
0.001301 0.000221 0.000000
0.001391 0.000202 0.000000
0.001450 0.000173 0.000000
0.001531 0.000143 0.000000