# vtk DataFile Version 2.0
Solution time step = 410 
ASCII

DATASET UNSTRUCTURED_GRID
POINTS 2113 double
0.000000 0.000000 0.000000
1.000000 0.000000 0.000000
1.000000 1.000000 0.000000
0.000000 1.000000 0.000000
0.031250 0.000000 0.000000
0.062500 0.000000 0.000000
0.093750 0.000000 0.000000
0.125000 0.000000 0.000000
0.156250 0.000000 0.000000
0.187500 0.000000 0.000000
0.218750 0.000000 0.000000
0.250000 0.000000 0.000000
0.281250 0.000000 0.000000
0.312500 0.000000 0.000000
0.343750 0.000000 0.000000
0.375000 0.000000 0.000000
0.406250 0.000000 0.000000
0.437500 0.000000 0.000000
0.468750 0.000000 0.000000
0.500000 0.000000 0.000000
0.531250 0.000000 0.000000
0.562500 0.000000 0.000000
0.593750 0.000000 0.000000
0.625000 0.000000 0.000000
0.656250 0.000000 0.000000
0.687500 0.000000 0.000000
0.718750 0.000000 0.000000
0.750000 0.000000 0.000000
0.781250 0.000000 0.000000
0.812500 0.000000 0.000000
0.843750 0.000000 0.000000
0.875000 0.000000 0.000000
0.906250 0.000000 0.000000
0.937500 0.000000 0.000000
0.968750 0.000000 0.000000
1.000000 0.031250 0.000000
1.000000 0.062500 0.000000
1.000000 0.093750 0.000000
1.000000 0.125000 0.000000
1.000000 0.156250 0.000000
1.000000 0.187500 0.000000
1.000000 0.218750 0.000000
1.000000 0.250000 0.000000
1.000000 0.281250 0.000000
1.000000 0.312500 0.000000
1.000000 0.343750 0.000000
1.000000 0.375000 0.000000
1.000000 0.406250 0.000000
1.000000 0.437500 0.000000
1.000000 0.468750 0.000000
1.000000 0.500000 0.000000
1.000000 0.531250 0.000000
1.000000 0.562500 0.000000
1.000000 0.593750 0.000000
1.000000 0.625000 0.000000
1.000000 0.656250 0.000000
1.000000 0.687500 0.000000
1.000000 0.718750 0.000000
1.000000 0.750000 0.000000
1.000000 0.781250 0.000000
1.000000 0.812500 0.000000
1.000000 0.843750 0.000000
1.000000 0.875000 0.000000
1.000000 0.906250 0.000000
1.000000 0.937500 0.000000
1.000000 0.968750 0.000000
0.968750 1.000000 0.000000
0.937500 1.000000 0.000000
0.906250 1.000000 0.000000
0.875000 1.000000 0.000000
0.843750 1.000000 0.000000
0.812500 1.000000 0.000000
0.781250 1.000000 0.000000
0.750000 1.000000 0.000000
0.718750 1.000000 0.000000
0.687500 1.000000 0.000000
0.656250 1.000000 0.000000
0.625000 1.000000 0.000000
0.593750 1.000000 0.000000
0.562500 1.000000 0.000000
0.531250 1.000000 0.000000
0.500000 1.000000 0.000000
0.468750 1.000000 0.000000
0.437500 1.000000 0.000000
0.406250 1.000000 0.000000
0.375000 1.000000 0.000000
0.343750 1.000000 0.000000
0.312500 1.000000 0.000000
0.281250 1.000000 0.000000
0.250000 1.000000 0.000000
0.218750 1.000000 0.000000
0.187500 1.000000 0.000000
0.156250 1.000000 0.000000
0.125000 1.000000 0.000000
0.093750 1.000000 0.000000
0.062500 1.000000 0.000000
0.031250 1.000000 0.000000
0.000000 0.968750 0.000000
0.000000 0.937500 0.000000
0.000000 0.906250 0.000000
0.000000 0.875000 0.000000
0.000000 0.843750 0.000000
0.000000 0.812500 0.000000
0.000000 0.781250 0.000000
0.000000 0.750000 0.000000
0.000000 0.718750 0.000000
0.000000 0.687500 0.000000
0.000000 0.656250 0.000000
0.000000 0.625000 0.000000
0.000000 0.593750 0.000000
0.000000 0.562500 0.000000
0.000000 0.531250 0.000000
0.000000 0.500000 0.000000
0.000000 0.468750 0.000000
0.000000 0.437500 0.000000
0.000000 0.406250 0.000000
0.000000 0.375000 0.000000
0.000000 0.343750 0.000000
0.000000 0.312500 0.000000
0.000000 0.281250 0.000000
0.000000 0.250000 0.000000
0.000000 0.218750 0.000000
0.000000 0.187500 0.000000
0.000000 0.156250 0.000000
0.000000 0.125000 0.000000
0.000000 0.093750 0.000000
0.000000 0.062500 0.000000
0.000000 0.031250 0.000000
0.500000 0.500000 0.000000
0.750000 0.250000 0.000000
0.250000 0.250000 0.000000
0.250000 0.750000 0.000000
0.750000 0.750000 0.000000
0.375000 0.125000 0.000000
0.125000 0.125000 0.000000
0.625000 0.125000 0.000000
0.500000 0.250000 0.000000
0.875000 0.125000 0.000000
0.625000 0.375000 0.000000
0.375000 0.375000 0.000000
0.125000 0.375000 0.000000
0.250000 0.500000 0.000000
0.125000 0.625000 0.000000
0.375000 0.625000 0.000000
0.125000 0.875000 0.000000
0.875000 0.375000 0.000000
0.875000 0.625000 0.000000
0.750000 0.500000 0.000000
0.875000 0.875000 0.000000
0.625000 0.625000 0.000000
0.625000 0.875000 0.000000
0.375000 0.875000 0.000000
0.500000 0.750000 0.000000
0.187500 0.062500 0.000000
0.062500 0.062500 0.000000
0.312500 0.062500 0.000000
0.250000 0.125000 0.000000
0.437500 0.062500 0.000000
0.312500 0.187500 0.000000
0.187500 0.187500 0.000000
0.562500 0.062500 0.000000
0.500000 0.125000 0.000000
0.562500 0.187500 0.000000
0.437500 0.187500 0.000000
0.687500 0.187500 0.000000
0.625000 0.250000 0.000000
0.375000 0.250000 0.000000
0.687500 0.062500 0.000000
0.812500 0.062500 0.000000
0.750000 0.125000 0.000000
0.937500 0.062500 0.000000
0.812500 0.187500 0.000000
0.437500 0.312500 0.000000
0.312500 0.312500 0.000000
0.562500 0.312500 0.000000
0.500000 0.375000 0.000000
0.687500 0.312500 0.000000
0.562500 0.437500 0.000000
0.437500 0.437500 0.000000
0.062500 0.187500 0.000000
0.125000 0.250000 0.000000
0.062500 0.312500 0.000000
0.187500 0.312500 0.000000
0.062500 0.437500 0.000000
0.250000 0.375000 0.000000
0.187500 0.437500 0.000000
0.187500 0.562500 0.000000
0.125000 0.500000 0.000000
0.250000 0.625000 0.000000
0.187500 0.687500 0.000000
0.062500 0.562500 0.000000
0.312500 0.437500 0.000000
0.375000 0.500000 0.000000
0.312500 0.562500 0.000000
0.437500 0.562500 0.000000
0.312500 0.687500 0.000000
0.062500 0.687500 0.000000
0.125000 0.750000 0.000000
0.062500 0.812500 0.000000
0.187500 0.812500 0.000000
0.062500 0.937500 0.000000
0.937500 0.187500 0.000000
0.937500 0.312500 0.000000
0.875000 0.250000 0.000000
0.937500 0.437500 0.000000
0.812500 0.312500 0.000000
0.937500 0.562500 0.000000
0.875000 0.500000 0.000000
0.812500 0.562500 0.000000
0.812500 0.437500 0.000000
0.812500 0.687500 0.000000
0.750000 0.625000 0.000000
0.750000 0.375000 0.000000
0.937500 0.687500 0.000000
0.937500 0.812500 0.000000
0.875000 0.750000 0.000000
0.937500 0.937500 0.000000
0.812500 0.812500 0.000000
0.687500 0.437500 0.000000
0.687500 0.562500 0.000000
0.625000 0.500000 0.000000
0.687500 0.687500 0.000000
0.562500 0.562500 0.000000
0.812500 0.937500 0.000000
0.687500 0.937500 0.000000
0.750000 0.875000 0.000000
0.562500 0.937500 0.000000
0.687500 0.812500 0.000000
0.437500 0.937500 0.000000
0.500000 0.875000 0.000000
0.437500 0.812500 0.000000
0.562500 0.812500 0.000000
0.312500 0.812500 0.000000
0.375000 0.750000 0.000000
0.625000 0.750000 0.000000
0.312500 0.937500 0.000000
0.187500 0.937500 0.000000
0.250000 0.875000 0.000000
0.562500 0.687500 0.000000
0.437500 0.687500 0.000000
0.500000 0.625000 0.000000
0.093750 0.031250 0.000000
0.031250 0.031250 0.000000
0.156250 0.031250 0.000000
0.125000 0.062500 0.000000
0.218750 0.031250 0.000000
0.156250 0.093750 0.000000
0.093750 0.093750 0.000000
0.281250 0.031250 0.000000
0.250000 0.062500 0.000000
0.281250 0.093750 0.000000
0.218750 0.093750 0.000000
0.343750 0.093750 0.000000
0.312500 0.125000 0.000000
0.187500 0.125000 0.000000
0.343750 0.031250 0.000000
0.406250 0.031250 0.000000
0.375000 0.062500 0.000000
0.468750 0.031250 0.000000
0.406250 0.093750 0.000000
0.218750 0.156250 0.000000
0.156250 0.156250 0.000000
0.281250 0.156250 0.000000
0.250000 0.187500 0.000000
0.343750 0.156250 0.000000
0.281250 0.218750 0.000000
0.218750 0.218750 0.000000
0.531250 0.031250 0.000000
0.500000 0.062500 0.000000
0.531250 0.093750 0.000000
0.468750 0.093750 0.000000
0.593750 0.093750 0.000000
0.562500 0.125000 0.000000
0.437500 0.125000 0.000000
0.593750 0.156250 0.000000
0.531250 0.156250 0.000000
0.500000 0.187500 0.000000
0.468750 0.156250 0.000000
0.531250 0.218750 0.000000
0.468750 0.218750 0.000000
0.406250 0.156250 0.000000
0.656250 0.156250 0.000000
0.625000 0.187500 0.000000
0.656250 0.218750 0.000000
0.593750 0.218750 0.000000
0.718750 0.218750 0.000000
0.687500 0.250000 0.000000
0.562500 0.250000 0.000000
0.375000 0.187500 0.000000
0.406250 0.218750 0.000000
0.343750 0.218750 0.000000
0.437500 0.250000 0.000000
0.312500 0.250000 0.000000
0.593750 0.031250 0.000000
0.656250 0.031250 0.000000
0.625000 0.062500 0.000000
0.718750 0.031250 0.000000
0.656250 0.093750 0.000000
0.781250 0.031250 0.000000
0.750000 0.062500 0.000000
0.781250 0.093750 0.000000
0.718750 0.093750 0.000000
0.843750 0.093750 0.000000
0.812500 0.125000 0.000000
0.687500 0.125000 0.000000
0.843750 0.031250 0.000000
0.906250 0.031250 0.000000
0.875000 0.062500 0.000000
0.968750 0.031250 0.000000
0.906250 0.093750 0.000000
0.718750 0.156250 0.000000
0.781250 0.156250 0.000000
0.750000 0.187500 0.000000
0.843750 0.156250 0.000000
0.781250 0.218750 0.000000
0.343750 0.281250 0.000000
0.281250 0.281250 0.000000
0.406250 0.281250 0.000000
0.375000 0.312500 0.000000
0.468750 0.281250 0.000000
0.406250 0.343750 0.000000
0.343750 0.343750 0.000000
0.531250 0.281250 0.000000
0.500000 0.312500 0.000000
0.531250 0.343750 0.000000
0.468750 0.343750 0.000000
0.593750 0.343750 0.000000
0.562500 0.375000 0.000000
0.437500 0.375000 0.000000
0.593750 0.281250 0.000000
0.656250 0.281250 0.000000
0.625000 0.312500 0.000000
0.718750 0.281250 0.000000
0.656250 0.343750 0.000000
0.468750 0.406250 0.000000
0.406250 0.406250 0.000000
0.531250 0.406250 0.000000
0.500000 0.437500 0.000000
0.593750 0.406250 0.000000
0.531250 0.468750 0.000000
0.468750 0.468750 0.000000
0.031250 0.093750 0.000000
0.062500 0.125000 0.000000
0.031250 0.156250 0.000000
0.093750 0.156250 0.000000
0.031250 0.218750 0.000000
0.125000 0.187500 0.000000
0.093750 0.218750 0.000000
0.093750 0.281250 0.000000
0.062500 0.250000 0.000000
0.125000 0.312500 0.000000
0.093750 0.343750 0.000000
0.031250 0.281250 0.000000
0.156250 0.218750 0.000000
0.187500 0.250000 0.000000
0.156250 0.281250 0.000000
0.218750 0.281250 0.000000
0.156250 0.343750 0.000000
0.031250 0.343750 0.000000
0.062500 0.375000 0.000000
0.031250 0.406250 0.000000
0.093750 0.406250 0.000000
0.031250 0.468750 0.000000
0.250000 0.312500 0.000000
0.218750 0.343750 0.000000
0.218750 0.406250 0.000000
[...]
POINT_DATA 2113
SCALARS damage double
LOOKUP_TABLE default
0.000000
0.000000
0.000000
0.000000
-0.000000
0.062500
0.194444
0.333333
0.444444
0.250000
0.083333
0.000000
0.000000
0.111111
0.222222
0.500000
0.416667
0.305556
0.111111
0.000000
0.000000
0.000000
0.000000
0.000000
0.000000
0.000000
0.000000
0.000000
0.000000
0.055556
0.027778
0.138889
0.000000
0.000000
-0.000000
-0.000000
0.000000
0.000000
0.000000
0.000000
0.000000
0.000000
0.000000
0.000000
0.000000
0.000000
0.000000
0.000000
0.000000
0.000000
0.000000
0.000000
0.000000
0.000000
0.000000
0.000000
0.000000
0.000000
0.000000
0.000000
0.000000
0.000000
0.000000
0.000000
0.000000
-0.000000
-0.000000
0.062500
0.194444
0.333333
0.444444
0.250000
0.083333
0.000000
0.027778
0.111111
0.222222
0.583333
0.388889
0.277778
0.083333
0.000000
0.000000
0.000000
0.000000
0.000000
0.000000
0.000000
0.000000
0.000000
0.000000
0.055556
0.027778
0.138889
0.000000
0.000000
-0.000000
-0.000000
0.000000
0.000000
0.000000
0.000000
0.000000
0.000000
0.000000
0.000000
0.000000
0.000000
0.000000
0.000000
0.000000
0.000000
0.000000
0.000000
0.000000
0.000000
0.000000
0.000000
0.000000
0.000000
0.000000
0.000000
0.000000
0.000000
0.000000
0.000000
0.000000
-0.000000
0.447761
0.000000
0.000000
0.000000
0.000000
0.208955
0.223881
0.000000
0.417910
0.014925
0.000000
0.000000
0.000000
0.000000
0.000000
0.000000
0.014925
0.000000
0.000000
0.000000
0.238806
0.000000
0.223881
0.000000
0.388060
0.300000
0.037736
0.016667
0.014925
0.416667
0.000000
0.000000
0.000000
0.134328
0.000000
0.402985
0.000000
0.000000
0.014925
0.000000
0.016667
0.000000
0.000000
0.000000
0.194030
0.000000
0.149254
0.462687
0.000000
0.164179
0.104478
0.000000
0.000000
0.000000
0.000000
0.000000
0.000000
0.000000
0.000000
0.000000
0.000000
0.000000
0.000000
0.000000
0.000000
0.000000
0.104478
0.000000
0.000000
0.000000
0.000000
0.000000
0.000000
0.000000
0.000000
0.000000
0.000000
0.000000
0.000000
0.000000
0.000000
0.000000
0.000000
0.000000
0.000000
0.000000
0.000000
0.000000
0.037736
0.014925
0.000000
0.000000
0.000000
0.000000
0.164179
0.300000
0.033333
0.014925
0.400000
0.000000
0.000000
0.134328
0.000000
0.402985
0.000000
0.000000
0.014925
0.000000
0.016667
0.000000
0.253731
0.104478
0.462687
0.183673
0.000000
0.448980
0.316667
0.122449
0.462687
0.149254
0.000000
0.016667
0.000000
0.134328
0.089552
0.000000
0.268657
0.183673
0.510204
0.300000
0.183673
0.402985
0.029851
0.089552
0.000000
0.000000
0.014925
0.000000
0.000000
0.000000
0.050000
0.000000
0.268657
0.000000
0.000000
0.417910
0.000000
0.044776
0.253731
0.328358
0.164179
0.522388
0.328358
0.000000
0.000000
0.000000
0.000000
0.000000
0.000000
0.044776
0.089552
0.208955
0.000000
0.298507
0.000000
0.000000
0.000000
0.000000
0.000000
0.000000
0.020408
0.000000
0.000000
0.000000
0.029851
0.000000
0.000000
0.081633
0.000000
0.016667
0.000000
0.000000
0.000000
0.000000
0.000000
0.014925
0.000000
0.000000
0.000000
0.074627
0.000000
0.373134
0.014925
0.000000
0.283582
0.507463
0.328358
0.328358
0.029851
0.164179
0.119403
0.000000
0.000000
0.000000
0.000000
0.000000
0.283582
0.000000
0.343284
0.462687
0.044776
0.358209
0.268657
0.000000
0.016667
0.000000
0.059701
0.000000
0.134328
0.000000
0.000000
0.000000
0.000000
0.000000
0.000000
0.014925
0.000000
0.000000
0.000000
0.000000
0.000000
0.000000
0.000000
0.000000
0.000000
0.000000
0.000000
0.000000
0.000000
0.000000
0.000000
0.000000
0.000000
0.000000
0.000000
0.000000
0.000000
0.000000
0.000000
0.000000
0.000000
0.000000
0.000000
0.000000
0.000000
0.000000
0.000000
0.000000
0.000000
0.000000
0.000000
0.000000
0.000000
0.000000
0.000000
0.000000
0.000000
0.000000
0.000000
0.000000
0.000000
0.000000
0.000000
0.000000
0.104478
0.000000
0.268657
0.000000
0.000000
0.000000
0.000000
0.000000
0.000000
0.000000
0.000000
0.000000
0.000000
0.000000
0.000000
0.000000
0.000000
0.000000
0.000000
0.000000
0.000000
0.000000
0.000000
0.000000
0.000000
0.014925
0.000000
0.000000
0.000000
0.000000
0.000000
0.000000
0.000000
0.000000
0.000000
0.000000
0.000000
0.000000
0.000000
0.000000
0.000000
0.000000
0.000000
0.000000
0.000000
0.000000
0.000000
0.000000
0.000000
0.000000
0.000000
0.000000
0.000000
0.000000
0.000000
0.000000
0.000000
0.000000
0.000000
0.000000
0.000000
0.000000
0.000000
0.000000
0.000000
0.000000
0.000000
0.000000
0.000000
0.000000
0.000000
0.000000
0.000000
0.000000
0.000000
0.000000
0.000000
0.000000
0.000000
0.000000
0.000000
0.000000
0.000000
0.000000
0.000000
0.000000
0.000000
0.000000
0.059701
0.134328
0.000000
0.000000
0.000000
0.016667
0.000000
0.149254
0.000000
0.014925
0.000000
0.104478
0.000000
0.000000
0.000000
0.000000
0.000000
0.000000
0.000000
0.000000
0.000000
0.000000
0.000000
0.000000
0.000000
0.000000
0.000000
0.000000
0.000000
0.000000
0.029851
0.029851
0.164179
0.044776
0.358209
0.183673
0.448980
0.316667
0.122449
0.477612
0.020408
0.016667
0.000000
0.119403
0.104478
0.000000
0.283582
0.204082
0.469388
0.316667
0.163265
0.402985
0.029851
0.000000
0.000000
0.029851
0.000000
0.000000
0.050000
0.000000
0.268657
0.000000
0.000000
0.417910
0.000000
0.044776
0.253731
0.328358
0.149254
0.492537
0.328358
0.000000
0.000000
0.000000
0.000000
0.000000
0.000000
0.029851
0.104478
0.208955
0.000000
0.313433
0.000000
0.000000
0.000000
0.000000
0.000000
0.000000
0.020408
0.000000
0.000000
0.000000
0.029851
0.014925
0.000000
0.081633
0.000000
0.016667
0.000000
0.000000
0.000000
0.000000
0.104478
0.000000
0.462687
0.059701
0.238806
0.492537
0.253731
0.402985
0.000000
0.104478
0.194030
0.000000
0.000000
0.000000
0.358209
0.268657
0.462687
0.000000
-0.000000
0.125000
0.069767
0.261905
0.115385
-0.000000
0.404762
0.326531
0.381818
0.236364
0.381818
0.483333
0.166667
0.357143
0.190476
0.285714
0.047619
0.200000
0.234375
0.081967
0.375000
0.283582
0.375000
0.328358
0.179104
0.000000
0.000000
0.000000
0.072727
0.000000
0.000000
0.133333
0.000000
0.000000
0.014925
0.062500
0.000000
0.059701
0.218750
0.046875
0.000000
0.014925
0.000000
0.149254
0.044776
0.000000
0.298507
0.208955
0.358209
0.104478
0.343284
0.047619
0.142857
0.081633
0.285714
0.109091
0.595238
0.326531
0.381818
0.218182
0.472727
0.450000
0.133333
0.404762
0.238095
0.387755
0.071429
0.327273
0.203125
0.328125
0.268657
0.484375
0.298507
0.119403
0.283582
0.104478
0.059701
0.059701
0.014925
0.044776
0.000000
0.000000
0.000000
0.000000
0.000000
0.000000
0.000000
0.000000
0.000000
0.000000
0.089552
0.000000
0.000000
0.000000
0.000000
0.000000
0.000000
0.000000
0.000000
0.000000
0.020408
0.000000
0.127273
0.000000
0.000000
0.233333
0.000000
0.015625
0.089552
0.156250
0.044776
0.194030
0.343750
0.000000
0.000000
0.000000
0.000000
0.000000
0.000000
0.014925
0.432836
0.358209
0.477612
0.283582
0.358209
0.000000
0.000000
0.000000
0.000000
0.000000
0.014925
0.089552
0.089552
0.134328
0.298507
0.194030
0.417910
0.447761
0.238806
0.059701
0.208955
0.328358
0.373134
0.283582
0.462687
0.447761
0.388060
0.507463
0.432836
0.358209
0.268657
0.000000
0.000000
0.000000
0.000000
0.000000
0.000000
0.000000
0.000000
0.000000
0.000000
0.000000
0.000000
0.000000
0.000000
0.000000
0.000000
0.000000
0.000000
0.000000
0.000000
0.000000
0.014925
0.000000
0.134328
0.000000
0.223881
0.164179
0.208955
0.059701
0.253731
0.000000
0.313433
0.134328
0.044776
0.014925
0.089552
0.000000
0.000000
0.343284
0.388060
0.238806
0.417910
0.119403
0.000000
0.000000
0.000000
0.000000
0.000000
0.000000
0.000000
0.000000
0.000000
0.000000
0.000000
0.000000
0.000000
0.000000
0.000000
0.000000
0.000000
0.000000
0.000000
0.000000
0.000000
0.000000
0.000000
0.000000
0.000000
0.000000
0.000000
0.023810
0.000000
0.000000
0.000000
0.036364
0.016667
0.000000
0.000000
0.000000
0.000000
0.000000
0.000000
0.000000
0.000000
0.015625
0.014925
0.014925
0.000000
0.029851
0.014925
0.000000
0.000000
0.000000
0.000000
0.000000
0.000000
0.047619
0.047619
0.020408
0.214286
0.054545
0.023810
0.040816
0.000000
0.090909
-0.000000
0.000000
0.033333
-0.000000
0.000000
0.000000
-0.000000
-0.000000
0.046875
0.000000
0.014925
-0.000000
0.000000
0.000000
0.000000
0.000000
0.000000
0.000000
0.000000
0.000000
0.000000
0.000000
0.000000
0.000000
0.000000
0.000000
0.014925
0.000000
0.029851
0.014925
0.000000
0.000000
0.000000
0.000000
0.000000
0.000000
0.000000
0.000000
0.000000
0.000000
0.000000
0.000000
0.044776
0.000000
0.014925
0.000000
0.119403
0.044776
0.000000
0.179104
0.328358
0.223881
0.522388
0.298507
0.000000
0.000000
0.000000
0.000000
0.089552
0.000000
0.000000
0.358209
0.477612
0.417910
0.477612
0.238806
0.313433
0.358209
0.238806
0.432836
0.567164
0.432836
0.402985
0.417910
0.268657
0.074627
0.149254
0.089552
0.238806
0.000000
0.044776
0.343284
0.164179
0.238806
0.059701
0.298507
0.000000
0.179104
0.014925
0.119403
0.000000
0.044776
0.000000
0.000000
0.000000
0.000000
0.000000
0.000000
0.014925
0.000000
0.000000
0.000000
0.000000
0.000000
0.000000
0.000000
0.000000
0.000000
0.000000
0.044776
0.000000
0.194030
0.104478
0.388060
0.179104
0.044776
0.447761
0.462687
0.447761
0.373134
0.253731
0.358209
0.268657
0.253731
0.104478
0.179104
0.000000
0.104478
0.373134
0.179104
0.447761
0.462687
0.253731
0.447761
0.373134
0.000000
0.000000
-0.000000
-0.000000
0.000000
0.016667
0.000000
0.000000
0.000000
0.016667
0.000000
0.000000
0.062500
0.089552
0.031250
0.134328
0.015625
0.000000
0.000000
0.000000
0.000000
0.000000
0.179104
0.089552
0.014925
0.014925
0.000000
0.000000
0.000000
0.000000
0.000000
0.000000
0.000000
0.000000
0.000000
0.000000
0.000000
0.000000
0.000000
0.000000
0.000000
0.000000
0.000000
0.000000
0.000000
0.000000
0.000000
0.000000
0.223881
0.044776
0.044776
0.014925
0.014925
0.000000
0.000000
0.000000
0.000000
0.000000
0.000000
0.000000
0.000000
0.000000
0.000000
0.000000
0.000000
0.000000
0.000000
0.000000
0.000000
0.000000
0.000000
0.000000
0.000000
0.000000
0.000000
0.000000
0.000000
0.000000
0.000000
0.000000
0.000000
0.000000
0.000000
0.000000
0.000000
0.000000
0.000000
0.000000
0.000000
0.000000
0.000000
0.000000
0.000000
0.000000
0.000000
0.000000
0.000000
0.000000
0.000000
0.000000
0.000000
0.000000
0.000000
0.000000
0.000000
0.000000
0.000000
0.000000
0.000000
0.000000
0.000000
0.000000
0.000000
0.000000
0.000000
0.000000
0.000000
0.000000
0.000000
0.000000
0.000000
0.000000
0.000000
0.000000
0.000000
0.000000
0.000000
0.000000
0.000000
0.000000
0.000000
0.000000
0.000000
0.000000
0.000000
0.000000
0.000000
0.000000
0.000000
0.000000
0.000000
0.000000
0.000000
0.000000
0.000000
0.000000
0.000000
0.000000
0.000000
0.000000
0.000000
0.000000
0.000000
0.000000
0.000000
0.000000
0.000000
0.000000
0.000000
0.000000
0.000000
0.000000
0.000000
0.000000
0.000000
0.000000
0.000000
0.000000
0.000000
0.000000
0.000000
0.000000
0.000000
0.000000
0.000000
0.000000
0.000000
0.000000
0.000000
0.000000
0.000000
0.000000
0.000000
0.000000
0.000000
0.000000
0.000000
0.000000
0.000000
0.000000
0.000000
0.000000
0.000000
0.000000
0.000000
0.000000
0.000000
0.000000
0.000000
0.000000
0.000000
0.000000
0.000000
0.000000
0.000000
0.000000
0.000000
0.000000
0.000000
0.000000
0.000000
0.000000
0.000000
0.000000
0.000000
0.000000
0.000000
0.000000
0.000000
0.000000
0.000000
0.000000
0.000000
0.000000
0.000000
0.000000
0.000000
0.000000
0.000000
0.000000
0.000000
0.000000
0.000000
0.000000
0.000000
0.000000
0.000000
0.000000
0.000000
0.000000
0.000000
0.000000
0.000000
0.044776
0.000000
0.104478
0.044776
0.044776
0.000000
0.104478
0.044776
0.000000
0.179104
0.268657
0.179104
0.373134
0.179104
0.000000
0.000000
0.000000
0.044776
0.000000
0.000000
0.000000
0.000000
0.000000
0.000000
0.000000
0.000000
0.000000
0.000000
0.000000
0.000000
0.000000
0.000000
0.000000
0.000000
0.000000
0.000000
0.000000
0.000000
0.000000
0.000000
0.000000
0.000000
0.000000
0.000000
0.000000
0.000000
0.000000
0.000000
0.000000
0.000000
0.000000
0.000000
0.000000
0.000000
0.000000
0.000000
0.000000
0.000000
0.000000
0.000000
0.000000
0.000000
0.000000
0.000000
0.000000
0.000000
0.000000
0.000000
0.000000
0.000000
0.000000
0.000000
0.000000
0.000000
0.000000
0.000000
0.000000
0.000000
0.000000
0.000000
0.000000
0.000000
0.000000
0.000000
0.000000
0.000000
0.000000
0.000000
0.000000
0.000000
0.000000
0.000000
0.000000
0.000000
0.000000
0.000000
0.000000
0.000000
0.000000
0.014925
0.000000
0.000000
0.000000
0.000000
0.000000
0.000000
0.014925
0.000000
0.014925
0.014925
0.029851
0.000000
0.000000
0.000000
0.000000
0.000000
0.000000
0.000000
0.000000
0.000000
0.000000
-0.000000
0.000000
0.000000
0.000000
0.000000
0.000000
-0.000000
-0.000000
0.000000
0.000000
-0.000000
-0.000000
0.000000
-0.000000
0.000000
0.000000
-0.000000
0.000000
0.000000
0.000000
0.000000
0.000000
0.000000
0.000000
0.000000
0.000000
0.000000
0.000000
0.000000
0.000000
0.000000
0.000000
0.000000
0.000000
0.000000
0.000000
0.000000
0.000000
0.000000
0.000000
0.000000
0.000000
0.000000
0.000000
0.000000
0.000000
0.000000
0.000000
0.000000
0.000000
0.000000
0.000000
0.000000
0.000000
0.000000
0.000000
0.000000
0.000000
0.000000
0.000000
0.000000
0.000000
0.000000
0.000000
0.000000
0.000000
0.000000
0.000000
0.000000
0.000000
0.000000
0.000000
0.000000
0.000000
0.000000
0.000000
0.000000
0.000000
0.000000
0.000000
0.000000
0.000000
0.014925
0.014925
0.000000
0.000000
0.014925
0.000000
0.000000
0.000000
0.000000
0.000000
0.000000
0.000000
0.000000
0.000000
0.000000
0.000000
0.000000
0.000000
0.000000
0.000000
0.000000
0.000000
0.000000
0.000000
0.000000
0.000000
0.000000
0.000000
0.000000
0.000000
0.000000
0.000000
0.000000
0.000000
0.000000
0.000000
0.000000
0.000000
0.000000
0.000000
0.000000
0.000000
0.000000
0.000000
0.000000
0.000000
0.000000
0.000000
0.000000
0.000000
0.000000
0.000000
0.000000
0.000000
0.000000
0.000000
0.000000
0.000000
0.000000
0.000000
0.000000
0.000000
0.000000
0.000000
0.000000
0.000000
0.000000
0.000000
0.000000
0.000000
0.000000
0.000000
0.000000
0.000000
0.000000
0.000000
0.000000
0.000000
0.000000
0.000000
0.000000
0.000000
0.000000
0.000000
0.000000
0.000000
0.000000
0.000000
0.000000
0.000000
0.000000
0.000000
0.000000
0.000000
0.000000
0.000000
0.000000
0.000000
0.000000
0.000000
0.000000
0.000000
0.000000
0.000000
0.000000
0.000000
0.000000
0.000000
0.000000
0.000000
0.000000
0.000000
0.000000
0.000000
0.000000
0.000000
0.000000
0.000000
0.000000
0.000000
0.000000
0.000000
0.000000
0.000000
0.000000
0.000000
0.000000
0.000000
0.000000
0.000000
0.000000
0.000000
0.000000
0.000000
0.000000
0.000000
0.000000
0.000000
0.000000
0.000000
0.000000
0.000000
0.000000
0.000000
0.000000
0.000000
0.000000
0.000000
0.000000
0.000000
0.000000
0.000000
0.000000
0.000000
0.000000
0.000000
0.000000
0.000000
0.031250
0.029851
0.104478
0.029851
0.134328
0.179104
0.029851
0.000000
0.000000
0.000000
0.000000
0.000000
0.000000
0.000000
0.000000
0.000000
0.000000
0.000000
0.000000
0.000000
0.000000
-0.000000
0.033333
0.016667
-0.000000
0.000000
0.000000
-0.000000
-0.000000
0.046875
0.062500
0.104478
0.081967
0.208955
0.000000
0.000000
0.000000
0.000000
0.000000
0.014925
0.000000
0.000000
0.000000
0.014925
0.000000
0.000000
0.119403
0.223881
0.044776
0.283582
0.044776
0.000000
0.000000
0.000000
0.000000
0.000000
0.000000
0.000000
0.000000
0.000000
0.000000
0.000000
0.000000
0.000000
0.000000
0.000000
0.000000
0.000000
0.000000
0.000000
0.000000
0.000000
0.000000
0.000000
0.000000
0.000000
0.000000
0.000000
0.000000
0.000000
0.000000
0.000000
0.000000
0.000000
0.000000
0.000000
0.000000
0.000000
0.000000
0.000000
0.000000
0.000000
0.000000
0.000000
0.000000
0.000000
0.000000
0.000000
0.000000
0.000000
0.000000
0.000000
0.000000
0.000000
0.000000
0.000000
0.000000
0.000000
0.000000
0.000000
0.000000
0.000000
0.000000
0.000000
0.000000
0.000000
0.000000
0.000000
0.000000
0.000000
0.000000
0.000000
0.000000
0.000000
0.000000
0.000000
0.000000
0.000000
0.044776
0.000000
0.089552
0.000000
0.029851
0.089552
0.089552
0.089552
0.164179
0.164179
0.000000
0.000000
0.044776
0.000000
0.104478
0.253731
0.253731
0.358209
0.253731
0.447761
0.000000
0.125000
0.069767
0.261905
0.115385
0.404762
0.326531
0.381818
0.236364
0.381818
0.483333
0.166667
0.357143
0.190476
0.285714
0.047619
0.200000
0.234375
0.375000
0.283582
0.390625
0.343284
0.000000
0.000000
0.000000
0.072727
0.018182
0.000000
0.133333
0.000000
0.000000
0.014925
0.062500
0.000000
0.059701
0.218750
0.062500
0.000000
0.014925
0.000000
0.164179
0.059701
0.000000
0.298507
0.208955
0.343284
0.104478
0.358209
0.047619
0.142857
0.081633
0.285714
0.109091
0.595238
0.326531
0.400000
0.254545
0.490909
0.466667
0.150000
0.404762
0.214286
0.367347
0.047619
0.309091
0.218750
0.343750
0.283582
0.468750
0.298507
0.268657
0.149254
0.089552
0.059701
0.014925
0.000000
0.000000
0.000000
0.000000
0.000000
0.000000
0.000000
0.000000
0.000000
0.000000
0.134328
0.000000
0.000000
0.000000
0.000000
0.000000
0.000000
0.000000
0.020408
0.000000
0.090909
0.000000
0.000000
0.233333
0.000000
0.015625
0.089552
0.156250
0.044776
0.208955
0.328125
0.000000
0.000000
0.000000
0.000000
0.000000
0.000000
0.014925
0.432836
0.358209
0.522388
0.283582
0.358209
0.000000
0.000000
0.000000
0.000000
0.000000
0.014925
0.089552
0.089552
0.149254
0.313433
0.194030
0.417910
0.447761
0.238806
0.059701
0.194030
0.313433
0.373134
0.268657
0.432836
0.477612
0.388060
0.597015
0.462687
0.358209
0.283582
0.000000
0.000000
0.000000
0.000000
0.000000
0.000000
0.000000
0.000000
0.000000
0.000000
0.000000
0.000000
0.000000
0.000000
0.000000
0.000000
0.000000
0.000000
0.000000
0.000000
0.000000
0.014925
0.000000
0.089552
0.000000
0.194030
0.164179
0.208955
0.059701
0.268657
0.014925
0.313433
0.149254
0.044776
0.014925
0.089552
0.000000
0.000000
0.358209
0.402985
0.268657
0.507463
0.149254
0.000000
0.000000
0.000000
0.000000
0.000000
0.000000
0.000000
0.000000
0.000000
0.000000
0.000000
0.000000
0.000000
0.000000
0.000000
0.000000
0.000000
0.000000
0.000000
0.000000
0.000000
0.000000
0.000000
0.000000
0.000000
0.000000
0.000000
0.023810
0.000000
0.000000
0.000000
0.036364
0.016667
0.000000
0.000000
0.000000
0.000000
0.000000
0.000000
0.000000
0.000000
0.015625
0.014925
0.014925
0.000000
0.044776
0.014925
0.000000
0.000000
0.000000
0.000000
0.000000
0.000000
0.047619
0.047619
0.020408
0.214286
0.054545
0.023810
0.040816
0.000000
0.090909
-0.000000
0.000000
0.033333
-0.000000
0.000000
0.000000
0.046875
0.000000
0.014925
0.000000
0.000000
0.000000
0.000000
0.000000
0.000000
0.000000
0.000000
0.000000
0.000000
0.000000
0.000000
0.000000
0.014925
0.000000
0.000000
0.000000
0.000000
0.000000
0.000000
0.000000
0.000000
0.000000
0.059701
0.000000
0.029851
0.000000
0.179104
0.074627
0.000000
0.223881
0.388060
0.268657
0.477612
0.343284
0.000000
0.014925
0.000000
0.134328
0.000000
0.298507
0.432836
0.358209
0.582090
0.194030
0.268657
0.417910
0.179104
0.358209
0.477612
0.462687
0.358209
0.462687
0.328358
0.029851
0.089552
0.044776
0.179104
0.000000
0.000000
0.253731
0.208955
0.298507
0.119403
0.388060
0.044776
0.134328
0.000000
0.059701
0.000000
0.014925
0.000000
0.000000
0.000000
0.000000
0.000000
0.000000
0.000000
0.000000
0.000000
0.000000
0.000000
0.000000
0.000000
0.104478
0.283582
0.179104
0.447761
0.253731
0.358209
0.462687
0.373134
0.447761
0.179104
0.268657
0.358209
0.179104
0.044776
0.104478
0.447761
0.373134
0.462687
VECTORS displacements double 
-0.002050 0.000000 0.000000
0.002050 0.000000 0.000000
0.002050 0.000000 0.000000
-0.002050 0.000000 0.000000
-0.002050 0.000000 0.000000
-0.002050 0.000000 0.000000
-0.002050 0.000000 0.000000
-0.002050 0.000000 0.000000
-0.000953 -0.000245 0.000000
-0.000981 -0.000113 0.000000
-0.000993 -0.000023 0.000000
-0.001009 0.000067 0.000000
-0.001019 0.000145 0.000000
-0.001027 0.000216 0.000000
-0.001025 0.000288 0.000000
-0.000952 0.000374 0.000000
0.001219 0.000613 0.000000
0.001268 0.000506 0.000000
0.001303 0.000438 0.000000
0.001338 0.000388 0.000000
0.001377 0.000345 0.000000
0.001417 0.000308 0.000000
0.001461 0.000276 0.000000
0.001509 0.000248 0.000000
0.001559 0.000226 0.000000
0.001611 0.000205 0.000000
0.001666 0.000187 0.000000
0.001721 0.000171 0.000000
0.001784 0.000155 0.000000
0.001825 0.000131 0.000000
0.001884 0.000108 0.000000